# vtk DataFile Version 4.0
SiwiRVisFile
ASCII
DATASET STRUCTURED_POINTS
DIMENSIONS 50 50 1
ORIGIN 0 0 0
SPACING 1 1 1
POINT_DATA 2500


SCALARS flags double 1
LOOKUP_TABLE default
1
1
1
1
1
1
1
1
1
1
1
1
1
1
1
1
1
1
1
1
1
1
1
1
1
1
1
1
1
1
1
1
1
1
1
1
1
1
1
1
1
1
1
1
1
1
1
1
1
1
1
1
1
1
1
1
1
1
1
1
1
1
1
1
1
1
1
1
1
1
1
1
1
1
1
1
1
1
1
1
1
1
1
1
1
1
1
1
1
1
1
1
1
1
1
1
1
1
1
1
1
1
1
1
1
1
1
1
1
1
1
1
1
1
1
1
1
1
1
1
1
1
1
1
1
1
1
1
1
1
1
1
1
1
1
1
1
1
1
1
1
1
1
1
1
1
1
1
1
1
1
1
1
1
1
1
1
1
1
1
1
1
1
1
1
1
1
1
1
1
1
1
1
1
1
1
1
1
1
1
1
1
1
1
1
1
1
1
1
1
1
1
1
1
1
1
1
1
1
1
1
1
1
1
1
1
1
1
1
1
1
1
1
1
1
1
1
1
1
1
1
1
1
1
1
1
1
1
1
1
1
1
1
1
1
1
1
1
1
1
1
1
1
1
1
1
1
1
1
1
1
1
1
1
1
1
1
1
1
1
1
1
1
1
1
1
1
1
1
1
1
1
1
1
1
1
1
1
1
1
1
1
1
1
1
1
1
1
1
1
1
1
1
1
1
1
1
1
1
1
1
1
1
1
1
1
1
1
1
1
1
1
1
1
1
1
1
1
1
1
1
1
1
1
1
1
1
1
1
1
1
1
1
1
1
1
1
1
1
1
1
1
1
1
1
1
1
1
1
1
1
1
1
1
1
1
1
1
1
1
1
1
1
1
1
1
1
1
1
1
1
1
1
1
1
1
1
1
1
1
1
1
1
1
1
1
1
1
1
1
1
1
1
1
1
1
1
1
1
1
1
1
1
1
1
1
1
1
1
1
1
1
1
1
1
1
1
1
1
1
1
1
1
1
1
1
1
1
1
1
1
1
1
1
1
1
1
1
1
1
1
1
1
1
1
1
1
1
1
1
1
1
1
1
1
1
1
1
1
1
1
1
1
1
1
1
1
1
1
1
1
1
1
1
1
1
1
1
1
1
1
1
1
1
1
1
1
1
1
1
1
1
1
1
1
1
1
1
1
1
1
1
1
1
1
1
1
1
1
1
1
1
1
1
1
1
1
1
1
1
1
1
1
1
1
1
1
1
1
1
1
1
1
1
1
1
1
1
1
1
1
1
1
1
1
1
1
1
1
1
1
1
1
1
1
1
1
1
1
1
1
1
1
1
1
1
1
1
1
1
1
1
1
1
1
1
1
1
1
1
1
1
1
1
1
1
1
1
1
1
1
1
1
1
1
1
1
1
1
1
1
1
1
1
1
1
1
1
1
1
1
1
1
1
1
1
1
1
1
1
1
1
1
1
1
1
1
1
1
1
1
1
1
1
1
1
1
1
1
1
1
1
1
1
1
1
1
1
1
1
1
1
1
1
1
1
1
1
1
1
1
1
1
1
1
1
1
1
1
1
1
1
1
1
1
1
1
1
1
1
1
1
1
1
1
1
1
1
1
1
1
1
1
1
1
1
1
1
1
1
1
1
1
1
1
1
1
1
1
1
1
1
1
1
1
1
1
1
1
1
1
1
1
1
1
1
1
1
1
1
1
1
1
1
1
1
1
1
1
1
1
1
1
1
1
1
1
1
1
1
1
1
1
1
1
1
1
1
1
1
1
1
1
1
1
1
1
1
1
1
1
1
1
1
1
1
1
1
1
1
1
1
1
1
1
1
1
1
1
1
1
1
1
1
1
1
1
1
1
1
1
1
1
1
1
1
1
1
1
1
1
1
1
1
1
1
1
1
1
1
1
1
1
1
1
1
1
1
1
1
1
1
1
1
1
1
1
1
1
1
1
1
1
1
1
1
1
1
1
1
1
1
1
1
1
1
1
1
1
1
1
1
1
1
1
1
1
1
1
1
1
1
1
1
1
1
1
1
1
1
1
1
1
1
1
1
1
1
1
1
1
1
1
1
1
1
1
1
1
1
1
1
1
1
1
1
1
1
1
1
1
1
1
1
1
1
1
1
1
1
1
1
1
1
1
1
1
1
1
1
1
1
1
1
1
1
1
1
1
1
1
1
1
1
1
1
1
1
1
1
1
1
1
1
1
1
1
1
1
1
1
1
1
1
1
1
1
1
1
1
1
1
1
1
1
1
1
1
1
1
1
1
1
1
1
1
1
1
1
1
1
1
1
1
1
1
1
1
1
1
1
1
1
1
1
1
1
1
1
1
1
1
1
1
1
1
1
1
1
1
1
1
1
1
1
1
1
1
1
1
1
1
1
1
1
1
1
1
1
1
1
1
1
1
1
1
1
1
1
1
1
1
1
1
1
1
1
1
1
1
1
1
1
1
1
1
1
1
1
1
1
1
1
1
1
1
1
1
1
1
1
1
1
1
1
1
1
1
1
1
1
1
1
1
1
1
1
1
1
1
1
1
1
1
1
1
1
1
1
1
1
1
1
1
1
1
1
1
1
1
1
1
1
1
1
1
1
1
1
1
1
1
1
1
1
1
1
1
1
1
1
1
1
1
1
1
1
1
1
1
1
1
1
1
1
1
1
1
1
1
1
1
1
1
1
1
1
1
1
1
1
1
1
1
1
1
1
1
1
1
1
1
1
1
1
1
1
1
1
1
1
1
1
1
1
1
1
1
1
1
1
1
1
1
1
1
1
1
1
1
1
1
1
1
1
1
1
1
1
1
1
1
1
1
1
1
1
1
1
1
1
1
1
1
1
1
1
1
1
1
1
1
1
1
1
1
1
1
1
1
1
1
1
1
1
1
1
1
1
1
1
1
1
1
1
1
1
1
1
1
1
1
1
1
1
1
1
1
1
1
1
1
1
1
1
1
1
1
1
1
1
1
1
1
1
1
1
1
1
1
1
1
1
1
1
1
1
1
1
1
1
1
1
1
1
1
1
1
1
1
1
1
1
1
1
1
1
1
1
1
1
1
1
1
1
1
1
1
1
1
1
1
1
1
1
1
1
1
1
1
1
1
1
1
1
1
1
1
1
1
1
1
1
1
1
1
1
1
1
1
1
1
1
1
1
1
1
1
1
1
1
1
1
1
1
1
1
1
1
1
1
1
1
1
1
1
1
1
1
1
1
1
1
1
1
1
1
1
1
1
1
1
1
1
1
1
1
1
1
1
1
1
1
1
1
1
1
1
1
1
1
1
1
1
1
1
1
1
1
1
1
1
1
1
1
1
1
1
1
1
1
1
1
1
1
1
1
1
1
1
1
1
1
1
1
1
1
1
1
1
1
1
1
1
1
1
1
1
1
1
1
1
1
1
1
1
1
1
1
1
1
1
1
1
1
1
1
1
1
1
1
1
1
1
1
1
1
1
1
1
1
1
1
1
1
1
1
1
1
1
1
1
1
1
1
1
1
1
1
1
1
1
1
1
1
1
1
1
1
1
1
1
1
1
1
1
1
1
1
1
1
1
1
1
1
1
1
1
1
1
1
1
1
1
1
1
1
1
1
1
1
1
1
1
1
1
1
1
1
1
1
1
1
1
1
1
1
1
1
1
1
1
1
1
1
1
1
1
1
1
1
1
1
1
1
1
1
1
1
1
1
1
1
1
1
1
1
1
1
1
1
1
1
1
1
1
1
1
1
1
1
1
1
1
1
1
1
1
1
1
1
1
1
1
1
1
1
1
1
1
1
1
1
1
1
1
1
1
1
1
1
1
1
1
1
1
1
1
1
1
1
1
1
1
1
1
1
1
1
1
1
1
1
1
1
1
1
1
1
1
1
1
1
1
1
1
1
1
1
1
1
1
1
1
1
1
1
1
1
1
1
1
1
1
1
1
1
1
1
1
1
1
1
1
1
1
1
1
1
1
1
1
1
1
1
1
1
1
1
1
1
1
1
1
1
1
1
1
1
1
1
1
1
1
1
1
1
1
1
1
1
1
1
1
1
1
1
1
1
1
1
1
1
1
1
1
1
1
1
1
1
1
1
1
1
1
1
1
1
1
1
1
1
1
1
1
1
1
1
1
1
1
1
1
1
1
1
1
1
1
1
1
1
1
1
1
1
1
1
1
1
1
1
1
1
1
1
1
1
1
1
1
1
1
1
1
1
1
1
1
1
1
1
1
1
1
1
1
1
1
1
1
1
1
1
1
1
1
1
1
1
1
1
1
1
1
1
1
1
1
1
1
1
1
1
1
1
1
1
1
1
1
1
1
1
1
1
1
1
1
1
1
1
1
1
1
1
1
1
1
1
1
1
1
1
1
1
1
1
1
1
1
1
1
1
1
1
1
1
1
1
1
1
1
1
1
1
1
1
1
1
1
1
1
1
1
1
1
1
1
1
1
1
1
1
1
1
1
1
1
1
1
1
1
1
1
1
1
1
1
1
1
1
1
1
1
1
1
1
1
1
1
1
1
1
1
1
1
1
1
1
1
1
1
1
1
1
1
1
1
1
1
1
1
1
1
1
1
1
1
1
1
1
1
1
1
1
1
1
1
1
1
1
1
1
1
1
1
1
1
1
1
1
1
1
1
1
1
1
1
1
1
1
1
1
1
1
1
1
1
1
1
1
1
1
1
1
1
1
1
1
1
1
1
1
1
1
1
1
1
1
1
1
1
1
1
1
1
1
1
1
1
1
1
1
1
1
1
1
1
1
1
1
1
1
1
1
1
1
1
1
1
1
1
1
1
1
1
1
1
1
1
1
1
1
1
1
1
1
1
1
1
1
1
1
1
1
1
1
1
1
1
1
1
1
1
1
1
1
1
1
1
1
1
1
1
1
1
1
1
1
1
1
1
1
1
1
1
1
1
1
1
1
1
1
1
1
1
1
1
1
1
1
1
1
1
1
1
1
1
1
1
1
1
1
1
1
1
1
1
1
1
1
1
1
1
1
1
1
1
1
1
1
1
1
1
1
1
1
1
1
1
1
1
1
1
1
1
1
1
1
1
1
1
1
1
1
1
1
1
1
1
1
1
1
1
1
1
1
1
1
1
1
1
1
1
1
1
1
1
1
1
1
1
1
1
1
1
1
1
1
1
1
1
1
1
1
1
1
1
1
1
1
1
1
1
1
1
1
1
1
1
1
1
1
1
1
1
1
1
1
1
1
1
1
1
1
1
1
1
1
1
1
1
1
1
1
1
1
1
1
1
1
1
1
1
1
1
1
1
1
1
1
1
1
1
1
1
1
1
1
1
1
1
1
1
1
1
1
1
1
1
1
1
1
1
1
1
1
1
1
1
1
1
1
1
1
1
1
1
1
1
1
1
1
1
1
1
1
1
1
1
1
1
1
1
1
1
1
1
1
1
1
1
1
1
1
1
1
1
1
1
1
1
1
1
1
1
1
1
1
1
1
1
1
1
1
1
1
1
1
1
1
1
1
1
1
1
1
1
1
1
1
1
1
1
1
1
1
1
1
1
1
1
1
1
1
1
1
1
1
1
1
1
1
1
1
1
1
1
1
1
1
1
1
1
1
1
1
1
1
1
1
1
1
1
1
1
1
1
1
1
1
1
1
1
1
1
1
1
1
1
1
1
1
1
1
1
1
1
1
1
1
1
1
1
1
1
1
1
1
1
1
1
1
1
1
1
1
1

SCALARS density double 1
LOOKUP_TABLE default
0.998088
0.997991
0.997872
0.997888
0.997859
0.997872
0.997901
0.997929
0.997984
0.998079
0.99817
0.998237
0.998371
0.998543
0.998643
0.998776
0.99897
0.999125
0.999225
0.999386
0.999552
0.999625
0.999698
0.999821
0.999898
0.999911
0.999991
1.0001
1.00014
1.0002
1.00033
1.00045
1.0005
1.00062
1.00075
1.00083
1.00088
1.00101
1.00109
1.00111
1.00118
1.00124
1.00127
1.00128
1.00131
1.00132
1.0013
1.00131
1.00125
1.00118
0.998023
0.997922
0.997858
0.997941
0.997869
0.997884
0.997937
0.997954
0.997983
0.998065
0.998141
0.998197
0.998298
0.998432
0.998537
0.998648
0.998807
0.998962
0.999083
0.999231
0.999398
0.999517
0.999615
0.999753
0.999858
0.999929
1.00002
1.00014
1.00022
1.0003
1.00042
1.00053
1.0006
1.0007
1.00081
1.00088
1.00094
1.00103
1.0011
1.00113
1.00118
1.00123
1.00125
1.00126
1.0013
1.00131
1.00126
1.00132
1.00129
1.00122
0.997863
0.997899
0.997913
0.997896
0.997941
0.997957
0.997978
0.998
0.998061
0.998068
0.998093
0.998197
0.998229
0.998262
0.998377
0.998509
0.998558
0.998669
0.99887
0.998994
0.999094
0.999297
0.999508
0.999601
0.999753
0.999971
1.0001
1.00017
1.00035
1.00051
1.00056
1.00064
1.00079
1.00085
1.00086
1.00096
1.00105
1.00106
1.00108
1.00117
1.00118
1.00118
1.00124
1.00126
1.00127
1.00127
1.00133
1.0013
1.0013
1.00133
0.997804
0.997918
0.997959
0.997943
0.998035
0.99807
0.998084
0.998097
0.99817
0.998153
0.99818
0.998196
0.99823
0.998241
0.998266
0.998323
0.998379
0.998451
0.998551
0.998695
0.99884
0.999024
0.999237
0.99946
0.999686
0.999919
1.00013
1.00033
1.00049
1.00063
1.00074
1.00083
1.00089
1.00095
1.00099
1.00103
1.00106
1.00108
1.00112
1.00113
1.00117
1.00117
1.00122
1.00124
1.00125
1.00127
1.00133
1.00131
1.00133
1.00139
0.997873
0.997919
0.998036
0.998052
0.998119
0.998111
0.99821
0.998231
0.998224
0.998289
0.998316
0.998279
0.99829
0.99834
0.998294
0.998255
0.998326
0.99835
0.998338
0.998444
0.998637
0.998772
0.998962
0.9993
0.999602
0.999831
1.00012
1.00043
1.00059
1.0007
1.00087
1.00096
1.00095
1.00099
1.00107
1.00106
1.00104
1.00111
1.00114
1.00112
1.00116
1.00123
1.00121
1.00123
1.00131
1.0013
1.00133
1.00133
1.00141
1.0014
0.997981
0.998
0.998072
0.998084
0.998146
0.99812
0.99822
0.99824
0.998268
0.998306
0.998362
0.998386
0.998378
0.998402
0.998398
0.998386
0.998349
0.998346
0.998369
0.998397
0.99848
0.998641
0.998881
0.999116
0.999437
0.99978
1.00009
1.00033
1.00059
1.00076
1.00086
1.00093
1.001
1.00104
1.00104
1.00108
1.00111
1.00114
1.00116
1.0012
1.00124
1.00126
1.00129
1.0013
1.00136
1.00135
1.00138
1.00138
1.00142
1.00141
0.998078
0.998122
0.998115
0.998038
0.998126
0.998137
0.998106
0.998148
0.998227
0.998237
0.998258
0.998346
0.998415
0.998382
0.998465
0.998512
0.998474
0.998467
0.998537
0.998559
0.998552
0.998719
0.998906
0.999083
0.999316
0.999678
0.999934
1.00016
1.00041
1.00066
1.00074
1.00085
1.00099
1.00104
1.00105
1.00112
1.00122
1.00119
1.00125
1.00132
1.00133
1.00132
1.00138
1.00142
1.00137
1.00139
1.00146
1.00141
1.00139
1.00143
0.998207
0.998164
0.998167
0.998113
0.998127
0.99811
0.998108
0.998091
0.998101
0.998145
0.998139
0.998203
0.998257
0.998353
0.998393
0.998472
0.998592
0.998671
0.998712
0.998804
0.998932
0.998969
0.99905
0.999204
0.999368
0.999475
0.999698
0.999946
1.00015
1.00032
1.00058
1.00077
1.00089
1.00102
1.00116
1.00122
1.00124
1.00133
1.00135
1.00138
1.00137
1.00142
1.00141
1.0014
1.00142
1.00141
1.00142
1.0014
1.00143
1.00141
0.998345
0.998199
0.998242
0.998274
0.998202
0.99815
0.998194
0.998158
0.998089
0.998081
0.998139
0.998079
0.998097
0.99821
0.998288
0.998362
0.998553
0.99877
0.998898
0.999081
0.999283
0.999348
0.999367
0.999424
0.999441
0.999403
0.999482
0.999656
0.999818
1.00003
1.00035
1.00063
1.0008
1.00104
1.00121
1.00127
1.00132
1.0014
1.00142
1.00136
1.00142
1.00142
1.00138
1.00137
1.00142
1.0014
1.00135
1.00139
1.00144
1.00136
0.998347
0.998301
0.998309
0.998255
0.998297
0.998256
0.998231
0.998238
0.998214
0.998173
0.998122
0.998145
0.998115
0.998097
0.998211
0.998346
0.998489
0.998713
0.999061
0.999306
0.999461
0.999681
0.99975
0.999652
0.999506
0.999503
0.999398
0.999382
0.999555
0.99986
1.00009
1.00038
1.00077
1.00098
1.00112
1.00125
1.00138
1.00136
1.00135
1.00141
1.00137
1.00137
1.00137
1.0014
1.00138
1.00136
1.00142
1.00137
1.00138
1.00139
0.998254
0.998274
0.998258
0.998144
0.998226
0.998244
0.998192
0.99819
0.998274
0.998243
0.998177
0.998232
0.998235
0.998213
0.998234
0.99842
0.998553
0.998756
0.99907
0.999378
0.999606
0.999781
0.999907
0.999817
0.999725
0.999559
0.999467
0.999371
0.999487
0.999661
0.999905
1.00022
1.00054
1.00079
1.00096
1.00118
1.00125
1.00129
1.00132
1.0014
1.00137
1.00136
1.00143
1.00144
1.00139
1.00141
1.00148
1.0014
1.00139
1.00143
0.998171
0.998056
0.998111
0.998075
0.99807
0.998048
0.998121
0.998137
0.99811
0.998211
0.998262
0.998245
0.998314
0.998423
0.9985
0.99855
0.998778
0.998979
0.999112
0.999346
0.999621
0.999735
0.999757
0.999902
0.999869
0.999699
0.999605
0.999652
0.999547
0.999575
0.999791
1.00003
1.0002
1.00048
1.0008
1.00093
1.00109
1.00125
1.00135
1.00133
1.00139
1.00148
1.00143
1.00144
1.0015
1.00148
1.00146
1.00146
1.00151
1.00142
0.998041
0.997933
0.997992
0.998024
0.998022
0.997957
0.998047
0.998071
0.998021
0.998098
0.998195
0.998297
0.998348
0.998577
0.998754
0.998896
0.999062
0.999253
0.999351
0.999385
0.999482
0.999567
0.999647
0.999737
0.999833
0.999909
0.999908
0.999833
0.999756
0.999684
0.999698
0.999729
0.999908
1.00018
1.00045
1.00071
1.00095
1.00119
1.00126
1.00137
1.00144
1.00149
1.00145
1.00147
1.00152
1.00148
1.00147
1.0015
1.00154
1.00147
0.997872
0.997958
0.998005
0.997923
0.99804
0.998049
0.997963
0.99799
0.998067
0.998046
0.998067
0.998266
0.998464
0.998591
0.998902
0.999231
0.999374
0.99946
0.999584
0.999558
0.999384
0.999395
0.999528
0.999549
0.999732
1.00001
1.00012
1.00001
0.999983
0.999875
0.999611
0.999576
0.999727
0.999896
1.00011
1.00051
1.00086
1.00102
1.00123
1.00142
1.00145
1.00144
1.00152
1.00156
1.00147
1.00149
1.00158
1.0015
1.0015
1.00157
0.997847
0.99792
0.998005
0.997923
0.99801
0.998018
0.998024
0.997987
0.998055
0.998125
0.998135
0.998282
0.99852
0.998775
0.999022
0.999318
0.999612
0.999677
0.999685
0.999634
0.999516
0.999381
0.999345
0.999529
0.999703
0.999918
1.00008
1.00022
1.00011
0.999907
0.999744
0.999621
0.99959
0.999662
0.999982
1.00029
1.00058
1.0009
1.00115
1.00132
1.00138
1.00149
1.00154
1.00152
1.00154
1.00156
1.00159
1.00154
1.00157
1.00159
0.997954
0.997831
0.997961
0.998017
0.997965
0.997912
0.998094
0.998112
0.998048
0.998189
0.998407
0.998448
0.998624
0.999013
0.999223
0.999381
0.999609
0.999807
0.999686
0.999621
0.999643
0.999519
0.999418
0.999524
0.99972
0.999751
0.999983
1.00016
1.00012
0.99998
0.999942
0.999785
0.99956
0.999669
0.99985
1.00003
1.00029
1.00073
1.00098
1.0011
1.00135
1.00151
1.00146
1.0015
1.00163
1.0016
1.00153
1.0016
1.00168
1.00156
0.997975
0.997938
0.998009
0.997972
0.998024
0.99799
0.998048
0.998128
0.998183
0.998293
0.998475
0.998755
0.998937
0.999141
0.999426
0.999553
0.999565
0.999586
0.999687
0.999639
0.999589
0.999673
0.999705
0.999637
0.999615
0.999769
0.99982
0.999882
1.00003
1.00017
1.00006
0.999911
0.999877
0.999751
0.999689
0.999822
1.00016
1.00042
1.0007
1.00107
1.00127
1.00141
1.00149
1.00158
1.00159
1.00158
1.00163
1.0016
1.00163
1.00163
0.997996
0.998109
0.998067
0.997883
0.998045
0.998115
0.997991
0.998008
0.998294
0.998408
0.998521
0.998923
0.999279
0.999387
0.999504
0.999697
0.999595
0.999452
0.999532
0.999617
0.999622
0.999736
0.999904
0.999811
0.999693
0.999701
0.999677
0.999687
0.999958
1.00014
1.00015
1.00015
1.00009
0.999843
0.999658
0.999801
0.999931
1.00012
1.00053
1.00096
1.00114
1.00131
1.00158
1.00164
1.00154
1.00163
1.00174
1.00163
1.00158
1.00169
0.998106
0.997975
0.997983
0.997978
0.997959
0.997935
0.998032
0.998081
0.998178
0.998505
0.998775
0.999004
0.999344
0.999637
0.999667
0.999581
0.999622
0.999536
0.999363
0.999484
0.999729
0.999816
0.99983
0.999947
0.999889
0.999628
0.99959
0.999758
0.999823
0.999969
1.00025
1.00037
1.00014
0.999973
0.999926
0.999737
0.999735
1.00004
1.0004
1.00065
1.00099
1.00137
1.00147
1.00157
1.00171
1.00172
1.00168
1.00173
1.00175
1.00165
0.998097
0.997826
0.997923
0.998067
0.997947
0.997867
0.998134
0.998295
0.998325
0.998617
0.99905
0.999259
0.999382
0.999673
0.999735
0.99956
0.999505
0.999523
0.999481
0.999456
0.999671
0.999815
0.999835
0.999917
0.999884
0.999778
0.999692
0.999737
0.999777
0.999944
1.00022
1.00027
1.00027
1.00023
1.00006
0.999803
0.999768
0.999977
1.00011
1.00039
1.00085
1.00118
1.00129
1.00149
1.00172
1.00171
1.00163
1.00177
1.00185
1.00169
0.99786
0.997993
0.997977
0.997832
0.997994
0.998114
0.998102
0.998304
0.998683
0.998862
0.999073
0.999456
0.999627
0.999491
0.999542
0.999619
0.999424
0.999394
0.999593
0.99968
0.999549
0.999715
0.999894
0.999767
0.999803
0.999932
0.999924
0.999716
0.999836
1.00003
0.99997
1.00016
1.00042
1.00039
1.00012
1.00007
0.999997
0.999778
0.999941
1.00036
1.00061
1.00087
1.0013
1.00154
1.00153
1.00168
1.00185
1.00172
1.0017
1.00188
0.997766
0.997959
0.997897
0.997729
0.997938
0.998118
0.99811
0.998277
0.998766
0.999093
0.999206
0.999504
0.999675
0.999558
0.999374
0.999421
0.999473
0.999421
0.99957
0.999704
0.999715
0.999649
0.999666
0.999757
0.999813
0.99995
0.99997
0.999996
0.999939
0.999873
0.99995
1.00015
1.00036
1.00035
1.00039
1.00031
1.00001
0.999839
0.999941
1.00019
1.00038
1.00079
1.00127
1.00149
1.00156
1.00174
1.00188
1.00181
1.00175
1.00189
0.997875
0.997635
0.997737
0.997982
0.997883
0.997861
0.998319
0.998619
0.998741
0.999206
0.999663
0.999623
0.999554
0.999648
0.999491
0.999247
0.999393
0.999648
0.999555
0.999631
0.999802
0.999674
0.999516
0.999695
0.999902
0.999846
1.00003
1.00019
1.00002
0.999847
1
1.00013
1.0001
1.00041
1.00059
1.00032
1.00008
1.00006
0.999912
0.999819
1.00026
1.00074
1.0009
1.00126
1.00173
1.00176
1.00166
1.00193
1.00201
1.00177
0.997719
0.997622
0.997754
0.997896
0.997954
0.998018
0.998406
0.998806
0.999044
0.999326
0.999628
0.999727
0.999491
0.999409
0.999445
0.999368
0.999337
0.999488
0.999697
0.999641
0.999604
0.999661
0.99966
0.999641
0.999731
0.999979
1.00008
1.00009
1.00009
1.00011
1.00001
0.99995
1.00022
1.00044
1.00047
1.00045
1.00046
1.00023
0.999908
0.999966
1.00018
1.00044
1.00076
1.0012
1.00153
1.00169
1.00178
1.0019
1.00198
1.00195
0.997491
0.997946
0.997868
0.997596
0.998067
0.998473
0.998436
0.998766
0.999425
0.999529
0.999345
0.999547
0.999597
0.999233
0.999215
0.999541
0.999518
0.999442
0.999671
0.999712
0.999524
0.999599
0.999781
0.999698
0.999698
0.999985
1.00005
0.999982
1.00017
1.00023
1.00001
0.999998
1.00023
1.00025
1.00032
1.00068
1.00066
1.00023
1.00017
1.00024
1.00003
1.00015
1.00079
1.00115
1.00116
1.00161
1.00202
1.00183
1.00175
1.00215
0.997744
0.997782
0.99777
0.997917
0.998099
0.998385
0.998767
0.999084
0.999339
0.999616
0.99958
0.999394
0.999342
0.999401
0.999342
0.999397
0.999656
0.9997
0.999513
0.999561
0.999679
0.999627
0.999625
0.999821
0.999949
0.999764
0.999891
1.00014
1.00016
1.0001
1.00018
1.00023
1.00004
1.00011
1.00047
1.00056
1.00051
1.00056
1.00041
1.00008
1.00002
1.00029
1.00049
1.00084
1.0013
1.00159
1.00172
1.00196
1.00197
1.00193
0.998035
0.997497
0.997783
0.998333
0.998206
0.998237
0.999084
0.999521
0.999312
0.999498
0.999825
0.999422
0.999049
0.999355
0.999553
0.999329
0.999484
0.999722
0.999564
0.999379
0.999612
0.999702
0.999656
0.999862
0.999907
0.999828
0.99986
1.00008
1.00007
1.00016
1.00041
1.00025
1.00009
1.00029
1.00048
1.00037
1.0006
1.00089
1.00048
1.00004
1.00022
1.00032
1.00015
1.00063
1.00139
1.0015
1.00145
1.00197
1.00221
1.0018
0.997621
0.997928
0.997967
0.997932
0.998326
0.998809
0.999004
0.999358
0.999734
0.999601
0.999343
0.999429
0.999326
0.999125
0.99936
0.999629
0.999479
0.99944
0.999615
0.999634
0.999441
0.999708
0.999959
0.999795
0.9998
0.999947
0.99997
0.999778
1.00002
1.00036
1.00021
1.0002
1.00039
1.00033
1.00017
1.00049
1.00083
1.00066
1.00057
1.00061
1.00023
0.999984
1.00036
1.00071
1.00086
1.00141
1.00187
1.00181
1.00184
1.00224
0.997574
0.99817
0.998005
0.997755
0.998484
0.999216
0.99911
0.999234
0.999827
0.999717
0.9991
0.999186
0.999501
0.999338
0.999259
0.999618
0.999691
0.999369
0.999499
0.99964
0.999683
0.999668
0.999827
0.99991
0.999836
0.999939
0.999854
0.999922
1.00009
1.00014
1.00021
1.00036
1.00047
1.00017
1.00021
1.00059
1.0006
1.00057
1.00088
1.00086
1.00023
1.00007
1.00048
1.00059
1.00061
1.0013
1.00194
1.00182
1.00173
1.00222
0.998072
0.997566
0.99783
0.998617
0.998647
0.998761
0.999599
0.999778
0.999298
0.999374
0.999561
0.999116
0.999097
0.999619
0.99963
0.999275
0.999483
0.999688
0.999332
0.999429
0.999811
0.999817
0.999607
0.99986
1.00004
0.99975
0.99989
1.00016
1.00001
0.999989
1.00038
1.00055
1.00021
1.00036
1.00059
1.00028
1.00035
1.00093
1.00096
1.00051
1.00063
1.00064
1.00006
1.00024
1.00107
1.00118
1.00119
1.00202
1.00229
1.00178
0.997836
0.997462
0.997928
0.998697
0.998737
0.998873
0.999551
0.999822
0.999279
0.99913
0.999408
0.999338
0.999078
0.999434
0.999674
0.999421
0.999268
0.999499
0.999614
0.999498
0.999685
0.999825
0.999834
0.999795
0.999828
0.999944
1.00001
0.99999
0.999975
1.00014
1.00033
1.00024
1.00039
1.00063
1.00049
1.00027
1.00056
1.00091
1.00075
1.00076
1.00094
1.00066
1.00019
1.00041
1.0009
1.00111
1.00127
1.00188
1.00228
1.0021
0.997201
0.99833
0.998356
0.997917
0.998999
0.999821
0.999268
0.999186
0.999864
0.999461
0.998795
0.999327
0.999779
0.999188
0.999215
0.999668
0.999515
0.999191
0.999614
0.999909
0.999592
0.999704
0.999957
0.999813
0.999733
1.00003
1.00005
0.999869
1.0001
1.00025
0.99996
1.0002
1.00067
1.00046
1.0003
1.00071
1.00078
1.00029
1.00078
1.00137
1.00072
1.00028
1.00085
1.0007
1.00012
1.00094
1.00193
1.00153
1.00155
1.00263
0.997688
0.998129
0.998148
0.99843
0.999029
0.999517
0.999492
0.999306
0.999394
0.999411
0.999122
0.999162
0.999496
0.999481
0.999134
0.999281
0.999527
0.99947
0.999413
0.999698
0.999873
0.999683
0.999661
0.999853
0.999971
0.99986
0.999948
1.00017
1.00017
0.999983
1.00013
1.00044
1.00043
1.00039
1.00068
1.00081
1.00048
1.00057
1.00099
1.00103
1.00087
1.00089
1.00076
1.00051
1.0006
1.00097
1.00137
1.00184
1.00188
1.00208
0.998406
0.997178
0.99801
0.99952
0.999087
0.998662
0.999871
0.99997
0.998736
0.998937
0.999822
0.999373
0.998908
0.999561
0.999696
0.998981
0.999244
0.999784
0.999637
0.999464
0.999847
0.999865
0.999602
0.999843
0.999979
0.99986
0.999985
1.00025
1.00003
1
1.00039
1.00029
1.00012
1.00064
1.00096
1.00034
1.00044
1.00113
1.0008
1.00045
1.00134
1.00149
1.00026
1.00032
1.00135
1.00094
1.00058
1.00196
1.00267
1.00157
0.997529
0.99813
0.998542
0.998695
0.999221
0.99961
0.999417
0.999334
0.999426
0.999069
0.999142
0.99952
0.999452
0.999151
0.999314
0.999481
0.999188
0.999324
0.999724
0.999797
0.999565
0.999747
0.999978
0.999768
0.999767
1.00004
1.00012
0.9999
1.00007
1.00033
1.00015
1.00014
1.00054
1.00072
1.00047
1.00067
1.00094
1.00065
1.00063
1.00114
1.00125
1.00087
1.00103
1.0009
1.00046
1.00093
1.00155
1.00147
1.00178
1.00259
0.997315
0.99907
0.998845
0.997917
0.999406
1.00043
0.999062
0.998631
0.999766
0.999558
0.99855
0.999232
0.999875
0.999118
0.998829
0.999569
0.999605
0.999096
0.999542
0.999922
0.99968
0.999613
0.999912
0.999891
0.999788
1.00007
0.999996
0.999955
1.00026
1.00026
1.00001
1.00034
1.00077
1.00032
1.00036
1.00114
1.00097
1.00027
1.00091
1.00164
1.0008
1.00069
1.00172
1.00123
0.999994
1.00089
1.00212
1.00138
1.0012
1.00268
0.99869
0.997762
0.998266
0.99968
0.99938
0.998923
0.99976
0.99963
0.998776
0.999153
0.999722
0.999082
0.99893
0.999481
0.999473
0.999057
0.999415
0.999781
0.999448
0.999513
0.999856
0.999849
0.999637
0.999836
1.00005
0.999845
0.999987
1.00026
1.00012
1.00005
1.00037
1.0005
1.00017
1.00046
1.00093
1.00062
1.00055
1.00115
1.00111
1.00053
1.00119
1.00172
1.00083
1.00067
1.00157
1.00099
1.00051
1.00207
1.00251
1.00137
0.998672
0.997234
0.99847
1.00016
0.999307
0.998526
0.999765
0.999998
0.998642
0.998799
0.99983
0.999329
0.998464
0.999208
0.999646
0.999135
0.999178
0.999738
0.999703
0.999336
0.999637
0.999852
0.999765
0.999786
0.999861
0.999996
1.0001
1.00015
1.00005
1.00025
1.00057
1.00025
1.0002
1.00078
1.00087
1.00038
1.00081
1.00159
1.00087
1.00046
1.00156
1.0018
1.00068
1.00092
1.00184
1.00115
1.00051
1.00184
1.00284
1.00178
0.997038
0.999536
0.999408
0.997879
0.999551
1.00058
0.998822
0.998518
1.00004
0.999525
0.998373
0.999145
0.99967
0.998712
0.998838
0.999735
0.999649
0.999215
0.99965
0.999924
0.999459
0.999645
1.00006
0.999839
0.999761
1.00011
1.00012
0.999879
1.00025
1.0005
1.00006
1.00026
1.00078
1.00044
1.00024
1.00109
1.00133
1.00043
1.00092
1.00186
1.00095
1.00049
1.00212
1.00187
1.00003
1.00111
1.00271
1.00101
1.00087
1.00345
0.997985
0.999314
0.998884
0.998436
0.99951
1.00016
0.999108
0.998634
0.999597
0.999529
0.998679
0.998827
0.999376
0.999063
0.998769
0.999417
0.999707
0.999479
0.999521
0.999702
0.999668
0.999588
0.999764
0.999859
0.999901
1.00005
1.00001
1.00011
1.00034
1.00025
1.0002
1.0005
1.00063
1.00032
1.00054
1.0012
1.00095
1.00066
1.00132
1.00157
1.00092
1.00104
1.00199
1.0016
1.00083
1.00132
1.00195
1.00188
1.00153
1.00227
0.99998
0.996656
0.998271
1.00129
0.999387
0.997726
1.00019
1.00043
0.997964
0.998591
1.00016
0.998978
0.998009
0.999252
0.999706
0.998791
0.999253
1.0001
0.999671
0.999279
0.999682
0.999828
0.999564
0.999835
1.00011
0.999885
1.00005
1.00034
1.00012
1.00019
1.00067
1.00047
1.00003
1.00076
1.00124
1.00031
1.00061
1.00197
1.00127
1.00012
1.0017
1.00259
1.00039
1.00068
1.00319
1.00148
0.999632
1.00264
1.00392
1.00063
0.997877
0.998259
0.99931
0.999484
0.999418
0.999356
0.999312
0.99937
0.999166
0.998729
0.998956
0.998934
0.998765
0.998863
0.999165
0.999379
0.999407
0.999639
0.999765
0.999653
0.999579
0.999623
0.9998
0.999885
0.999917
1.00003
1.00007
1.0001
1.00022
1.00036
1.00038
1.00029
1.00046
1.00074
1.00068
1.00076
1.00111
1.00126
1.00112
1.0012
1.00161
1.00139
1.00149
1.00174
1.00154
1.00166
1.00194
1.00159
1.00235
1.00338
0.99654
1.00141
0.999957
0.996495
0.999848
1.00179
0.998273
0.997667
1.00039
0.999715
0.997394
0.998642
0.999824
0.998636
0.998434
0.999771
0.999884
0.999137
0.999596
1.00005
0.999477
0.999371
0.999831
0.999889
0.999904
1.00015
1.00005
0.999977
1.00048
1.00053
1.00002
1.00048
1.00106
1.00032
1.00023
1.00155
1.00145
1.00016
1.00128
1.00275
1.00072
1.00009
1.00306
1.0028
0.999525
1.0015
1.00456
1.00114
1.00005
1.0045
1.00013
0.997855
0.998245
1.00057
0.999543
0.99858
0.999685
0.999555
0.998478
0.998549
0.999133
0.998469
0.998305
0.99907
0.999377
0.999205
0.999404
0.999797
0.999637
0.999501
0.999669
0.999649
0.999608
0.999847
1.00006
1.00002
1.00004
1.00025
1.0003
1.00027
1.00048
1.00053
1.0004
1.0007
1.00097
1.0008
1.00087
1.00153
1.00152
1.00094
1.00162
1.00201
1.00125
1.00137
1.00284
1.00198
1.00064
1.00345
1.00383
1.00078
1.0005
0.995393
0.998538
1.00267
0.999205
0.996863
1.00042
1.0007
0.997386
0.997878
0.999687
0.998584
0.997628
0.999194
0.999859
0.999017
0.999355
1.00013
0.999707
0.999301
0.999689
0.999769
0.999524
0.999847
1.00011
0.999923
1.00013
1.00042
1.00013
1.00019
1.00074
1.00049
1.00005
1.00089
1.00134
1.00032
1.0007
1.00229
1.0014
1.00015
1.00215
1.00312
1.00019
1.00067
1.00448
1.00248
0.999347
1.0034
1.00576
1.00135
0.995425
1.00155
1.00051
0.996541
0.999695
1.00164
0.998252
0.997455
0.999703
0.999008
0.997294
0.998127
0.999393
0.998747
0.998632
0.999769
0.999931
0.999384
0.999504
0.999773
0.999481
0.999401
0.999798
0.99991
0.999914
1.00011
1.00013
1.00015
1.00045
1.00045
1.00022
1.00057
1.00092
1.00049
1.0005
1.00156
1.00144
1.0005
1.00153
1.00256
1.00108
1.00044
1.00311
1.00289
0.99994
1.00218
1.00563
1.00121
1.00049
1.00744
0.997962
1.00254
0.999396
0.996142
1.0002
1.0016
0.998105
0.99765
0.99962
0.998653
0.997078
0.998199
0.999266
0.998704
0.998949
0.999974
0.999949
0.999437
0.999675
0.999757
0.999322
0.999431
0.999863
0.99984
0.999902
1.00025
1.00023
1.00009
1.00046
1.00053
1.00011
1.00043
1.001
1.00052
1.00038
1.00147
1.00158
1.00048
1.00133
1.00272
1.00125
1.00033
1.00296
1.00316
1.00007
1.00178
1.00589
1.00271
1.0008
1.00446
1.00274
0.991349
0.996797
1.00458
0.999445
0.99594
0.999915
1.00046
0.996617
0.996938
0.99931
0.998341
0.997335
0.9992
1.00019
0.999373
0.999414
1.00018
0.999688
0.999076
0.999467
0.999727
0.999605
0.999866
1.00011
1.00003
1.00024
1.00045
1.00014
1.00024
1.00081
1.0005
1.00011
1.00109
1.00144
1.00041
1.00088
1.00263
1.00147
1.00003
1.00258
1.00345
0.999776
1.00073
1.00581
1.00275
0.997964
1.00627
1.01006
0.997882
0.996394
0.996431
0.999478
1.00111
0.998816
0.998944
0.999809
0.998531
0.997334
0.997945
0.998236
0.997694
0.998261
0.999427
0.999654
0.999633
0.999971
0.999979
0.99934
0.999233
0.999491
0.999502
0.99955
1.00002
1.0002
1.00007
1.00022
1.00052
1.00027
1.00015
1.00056
1.00068
1.00029
1.0007
1.00129
1.00102
1.0008
1.00178
1.00192
1.00094
1.00137
1.00268
1.00153
1.00091
1.00299
1.00405
1.00117
1.00354
1.00733
1.00789
0.995391
1.01012
0.999979
0.993452
1.00097
1.00326
0.997479
0.996352
0.999776
0.998147
0.99581
0.997752
0.999557
0.998699
0.99901
1.00067
1.00044
0.999383
0.999553
0.999649
0.999009
0.999139
0.999808
0.999891
1.00001
1.00048
1.00027
1.00005
1.00057
1.00051
0.999836
1.0005
1.00131
1.00036
1.00017
1.00215
1.00181
0.999886
1.00162
1.00387
1.00046
0.999328
1.0046
1.00386
0.997112
1.00306
1.01066
0.99982
0.995912
1.02274

VECTORS velocity double
0.000101118 0.000107813 0
8.37385e-05 0.000241279 0
2.15146e-05 0.000156395 0
1.36867e-05 0.000201509 0
-9.17612e-06 0.000156113 0
-2.42701e-05 0.00019616 0
-5.57467e-05 0.000168567 0
-6.36742e-05 0.000187719 0
-8.28843e-05 0.000174861 0
-9.98313e-05 0.000187962 0
-0.000111313 0.000172105 0
-0.00011848 0.000183786 0
-0.000127919 0.000175695 0
-0.000133134 0.000172794 0
-0.000127076 0.000159474 0
-0.000125741 0.000156859 0
-0.000121233 0.00014253 0
-0.000111151 0.000128079 0
-9.67885e-05 0.000110779 0
-8.55765e-05 9.87592e-05 0
-7.02631e-05 7.63843e-05 0
-5.41906e-05 6.06104e-05 0
-4.11868e-05 4.28277e-05 0
-3.22718e-05 2.88123e-05 0
-2.40162e-05 1.08737e-05 0
-2.22071e-05 -9.39216e-07 0
-2.66656e-05 -1.70667e-05 0
-3.22387e-05 -2.90076e-05 0
-4.17402e-05 -4.26372e-05 0
-5.25657e-05 -5.34826e-05 0
-6.27153e-05 -6.93663e-05 0
-7.00619e-05 -7.59385e-05 0
-7.93082e-05 -8.59539e-05 0
-8.39544e-05 -9.49371e-05 0
-8.65213e-05 -0.000102412 0
-8.65315e-05 -0.000100765 0
-9.06066e-05 -0.000109917 0
-8.53334e-05 -0.000109723 0
-7.90523e-05 -0.000114137 0
-7.42897e-05 -0.000103963 0
-6.6711e-05 -0.000116668 0
-5.47663e-05 -0.000105789 0
-4.18452e-05 -0.000115025 0
-3.79334e-05 -0.000102313 0
-1.72616e-05 -0.000122149 0
-5.67746e-06 -9.52136e-05 0
6.08718e-06 -0.000124191 0
1.18325e-05 -9.68303e-05 0
5.21574e-05 -0.000153989 0
6.47967e-05 -6.74509e-05 0
0.000100862 0.000286483 0
0.000115071 0.000631665 0
4.76423e-05 0.000511286 0
3.42554e-05 0.000537086 0
-1.67904e-05 0.000505212 0
-6.45589e-05 0.000541603 0
-9.45483e-05 0.000501286 0
-0.000121279 0.000518011 0
-0.000155252 0.000517493 0
-0.000181296 0.000525152 0
-0.000204147 0.000501016 0
-0.000221161 0.000515272 0
-0.000232976 0.000502565 0
-0.000241508 0.000489928 0
-0.000243864 0.000459595 0
-0.000238105 0.000449745 0
-0.000230663 0.000410625 0
-0.000215198 0.000371291 0
-0.000195132 0.000326344 0
-0.000170394 0.000286049 0
-0.000146424 0.00022903 0
-0.000120431 0.000179354 0
-0.000100312 0.000132472 0
-8.29454e-05 8.35692e-05 0
-7.09625e-05 3.7216e-05 0
-6.80018e-05 -3.68505e-06 0
-7.17236e-05 -4.62387e-05 0
-7.99652e-05 -8.67497e-05 0
-9.26048e-05 -0.000121982 0
-0.000110813 -0.000158117 0
-0.000125166 -0.00019759 0
-0.000140592 -0.000220151 0
-0.000154015 -0.000247465 0
-0.000163534 -0.000270627 0
-0.00016527 -0.000292634 0
-0.000168301 -0.000290538 0
-0.000165451 -0.000311789 0
-0.000158492 -0.000315071 0
-0.000148608 -0.000322033 0
-0.000137893 -0.000308622 0
-0.00012231 -0.00032829 0
-0.000104441 -0.000321311 0
-8.2499e-05 -0.000321603 0
-6.41642e-05 -0.000311236 0
-4.6121e-05 -0.00034156 0
-1.31913e-05 -0.000316266 0
1.91625e-05 -0.000337504 0
2.98337e-05 -0.000320541 0
7.15448e-05 -0.000405238 0
6.37882e-05 -0.000180879 0
6.68835e-05 0.000433995 0
8.94577e-05 0.000893663 0
4.76435e-05 0.000819557 0
6.53873e-06 0.000768857 0
-4.81513e-05 0.000794451 0
-5.43212e-05 0.000754018 0
-8.29945e-05 0.000756887 0
-0.000126146 0.000752292 0
-0.000151979 0.000753643 0
-0.00016348 0.000748086 0
-0.000189156 0.000755615 0
-0.00022082 0.000743476 0
-0.000230388 0.00074117 0
-0.000238294 0.000733884 0
-0.000255497 0.000709683 0
-0.000265053 0.000678993 0
-0.000257647 0.000648666 0
-0.000251513 0.000601721 0
-0.000250033 0.00053748 0
-0.000230868 0.000475601 0
-0.000207625 0.000403742 0
-0.000190175 0.000321253 0
-0.000171051 0.000235327 0
-0.000150359 0.000159018 0
-0.000138936 7.63989e-05 0
-0.000132568 -4.12433e-06 0
-0.000130888 -8.04459e-05 0
-0.000139335 -0.000143084 0
-0.000145942 -0.000210185 0
-0.000152345 -0.000270275 0
-0.000166049 -0.000317248 0
-0.000176912 -0.000354285 0
-0.000172118 -0.000395173 0