# vtk DataFile Version 4.0
SiwiRVisFile
ASCII
DATASET STRUCTURED_POINTS
DIMENSIONS 25 25 1
ORIGIN 0 0 0
SPACING 1 1 1
POINT_DATA 625

SCALARS flags double 1
LOOKUP_TABLE default
1
1
1
1
1
1
1
1
1
1
1
1
1
1
1
1
1
1
1
1
1
1
1
1
1
1
1
1
1
1
1
1
1
1
1
1
1
1
1
1
1
1
1
1
1
1
1
1
1
1
1
1
1
1
1
1
1
1
1
1
1
1
1
1
1
1
1
1
1
1
1
1
1
1
1
1
1
1
1
1
1
1
1
1
1
1
1
1
1
1
1
1
1
1
1
1
1
1
1
1
1
1
1
1
1
1
1
1
1
1
1
1
1
1
1
1
1
1
1
1
1
1
1
1
1
1
1
1
1
1
1
1
1
1
1
1
1
1
1
1
1
1
1
1
1
1
1
1
1
1
1
1
1
1
1
1
1
1
1
1
1
1
1
1
1
1
1
1
1
1
1
1
1
1
1
1
1
1
1
1
1
1
1
1
1
1
1
1
1
1
1
1
1
1
1
1
1
1
1
1
1
1
1
1
1
1
1
1
1
1
1
1
1
1
1
1
1
1
1
1
1
1
1
1
1
1
1
1
1
1
1
1
1
1
1
1
1
1
1
1
1
1
1
1
1
1
1
1
1
1
1
1
1
1
1
1
1
1
1
1
1
1
1
1
1
1
1
1
1
1
1
1
1
1
1
1
1
1
1
1
1
1
1
1
1
1
1
1
1
1
1
1
1
1
1
1
1
1
1
1
1
1
1
1
1
1
1
1
1
1
1
1
1
1
1
1
1
1
1
1
1
1
1
1
1
1
1
1
1
1
1
1
1
1
1
1
1
1
1
1
1
1
1
1
1
1
1
1
1
1
1
1
1
1
1
1
1
1
1
1
1
1
1
1
1
1
1
1
1
1
1
1
1
1
1
1
1
1
1
1
1
1
1
1
1
1
1
1
1
1
1
1
1
1
1
1
1
1
1
1
1
1
1
1
1
1
1
1
1
1
1
1
1
1
1
1
1
1
1
1
1
1
1
1
1
1
1
1
1
1
1
1
1
1
1
1
1
1
1
1
1
1
1
1
1
1
1
1
1
1
1
1
1
1
1
1
1
1
1
1
1
1
1
1
1
1
1
1
1
1
1
1
1
1
1
1
1
1
1
1
1
1
1
1
1
1
1
1
1
1
1
1
1
1
1
1
1
1
1
1
1
1
1
1
1
1
1
1
1
1
1
1
1
1
1
1
1
1
1
1
1
1
1
1
1
1
1
1
1
1
1
1
1
1
1
1
1
1
1
1
1
1
1
1
1
1
1
1
1
1
1
1
1
1
1
1
1
1
1
1
1
1
1
1
1
1
1
1
1
1
1
1
1
1
1
1
1
1
1
1
1
1
1
1
1
1
1
1
1
1
1
1
1
1
1
1
1
1
1
1
1
1
1
1
1
1
1
1
1
1
1
1
1
1
1
1
1
1
1
1
1
1
1
1
1

SCALARS density double 1
LOOKUP_TABLE default
0.999806
0.999831
0.999937
0.999801
0.999708
0.999923
0.99991
0.999606
0.99973
1.00002
0.999709
0.999509
0.999929
0.999919
0.999464
0.999678
1.00003
0.999629
0.999479
0.999971
0.999877
0.999442
0.999776
1.00005
0.999579
1.00011
0.999574
0.999735
1.00014
0.999813
0.999579
0.999894
0.99996
0.999664
0.999692
0.999874
0.99979
0.999687
0.999721
0.99976
0.999778
0.999725
0.99964
0.999754
0.999856
0.999685
0.999602
0.999864
0.999871
0.999563
0.999798
0.999986
0.999825
0.999771
0.999931
0.999818
0.999681
0.999912
0.999882
0.999575
0.999789
0.999988
0.999601
0.99959
0.999995
0.999756
0.999441
0.999871
0.999971
0.99944
0.999646
1.00011
0.99965
0.999399
1
0.999668
1.00018
0.999965
0.999527
0.999831
1.0001
0.999757
0.999576
0.99991
0.999948
0.999642
0.999664
0.999887
0.999824
0.999626
0.999687
0.999842
0.99977
0.999629
0.999705
0.999823
0.999774
0.999666
0.999711
0.999821
1.00011
0.999556
0.999796
1.00006
0.999793
0.999713
0.999979
0.999788
0.999649
0.999937
0.999823
0.999593
0.999877
0.999893
0.999542
0.999742
0.999968
0.999554
0.999534
1.00009
0.999777
0.999322
0.999914
1.00013
0.999382
0.999903
0.999496
0.999803
1.00017
0.999881
0.999568
0.999854
1.00008
0.999694
0.999563
0.999941
0.999973
0.999626
0.999652
0.99995
0.999792
0.999531
0.999753
0.999889
0.999651
0.999656
0.999861
0.99976
0.999686
0.999814
0.999355
1.00032
0.999857
1
0.99993
1.0001
0.999548
0.999659
1.00002
0.999769
0.999732
0.999937
0.999754
0.9997
0.999938
0.999747
0.999552
1
1
1
0.999758
1.00023
0.999544
0.999345
1.00022
0.999816
0.999873
0.999583
1
0.999782
0.999975
0.999745
0.999469
0.999867
1.00012
0.999746
0.999628
1.00001
0.999981
0.99953
0.999693
1.00004
1
1
1
0.999866
0.999495
0.999916
0.999987
0.999516
1.00008
0.998701
0.999471
1
0.999576
0.999155
1.00009
1
1
0.999898
1.00002
0.999808
0.999801
0.999852
0.999747
0.999899
0.999874
1
1
1
0.999773
0.999304
1.00009
1.00028
0.999316
0.99911
0.999752
0.999787
1
0.999806
0.999693
0.999469
0.999692
0.99975
0.999701
0.999953
1.00009
0.999704
0.99968
1.00014
0.999855
0.99943
1.00009
1.00026
0.999402
0.999836
1.00045
0.999522
0.999421
1.00039
0.999052
1.00052
0.999486
0.998274
0.999683
1.0004
0.999186
0.9992
1.00022
0.999975
0.999588
0.999832
1.00006
0.999938
0.999833
0.999732
0.999843
1.00012
0.9999
0.999446
1.00005
1.00033
0.99956
0.999377
1.0003
1.00023
0.998725
0.999067
1.00023
0.999261
0.998985
0.999926
1
0.999706
0.999708
1
0.999842
0.999992
1.00002
0.999601
0.999927
1.00034
0.999483
0.999531
1.00065
0.999832
0.998978
1.00046
1.00049
0.998829
0.999642
0.998328
0.999475
1.00048
0.999137
0.99848
0.999758
1.00028
0.998821
1
1.0003
1.00008
0.999716
0.99988
1.00007
0.999982
0.999806
0.999722
0.999978
1.00012
0.999756
0.999586
1.00001
1.00027
0.999616
0.998331
1.00089
0.999783
0.997877
0.999765
1.00058
0.998597
0.998961
0.999959
1.00009
0.999738
1.00002
1.00001
0.999864
1.00016
0.999826
0.999445
1.00045
1.00025
0.998807
1.00009
1.00115
0.998908
0.998892
1.0014
0.99958
1.00012
0.999129
0.998763
0.999642
0.999893
0.99902
0.998965
1.00002
1.00012
0.999641
0.999878
1.0003
0.999968
0.999669
0.999991
1.00011
0.999871
0.999696
0.999974
0.999893
0.999853
1.00011
0.999638
0.999543
1.00075
0.997116
0.999003
1.00155
0.998668
0.997605
1.00071
1
0.999537
0.999444
1.00031
1.00006
0.999789
1.00012
0.999885
0.999958
1.00028
0.999298
0.999546
1.00132
0.999488
0.998185
1.00123
1.00124
0.997735
0.998417
0.999284
0.999801
0.999104
0.999215
0.999338
0.999087
1
0.999833
0.999963
1.00019
1
0.99971
1.00009
1.00033
0.99967
0.999651
1.00021
1.00008
0.999325
1.00014
1.00049
0.998978
0.999835
1.00132
0.997802
1.00234
0.999505
0.996419
1.00016
1.00143
0.997415
1
1.00062
1.00029
0.999234
1.00023
1.00054
0.999684
0.999841
1.00025
0.999709
1.00008
1
0.997974
1.0004
1.00211
0.998288
0.997981
1.00245
1.00112
0.997729
0.998306
1.00077
0.998929
0.998107
1.00011
1
0.99995
1.00012
0.999986
1.00005
1.00025
0.999988
0.999639
1.00027
1.00019
0.999565
1
1.00125
0.999084
0.998261
1.00198
1.00086
0.996769
1.00021
0.995379
0.999048
1.00218
0.998307
0.997124
1.00076
1
0.999325
0.999625
1.00095
0.999809
0.999388
1.00076
1.00041
0.999122
1
1
1
1.00141
0.999527
0.997482
1.00156
1.00225
0.997264
0.99528
1.00238
1.00021
0.995342
0.999535
1.00133
0.998091
0.998686
1.00072
1.0002
1.00001
1.00007
1.00005
0.999804
1.00056
1.00021
1
1
1
1
1
1
1
0.998659
1.00662
0.999174
1.00247
0.997823
0.99583
0.999774
1.00072
0.998169
0.999292
1.00092
0.999976
0.999104
1.00045
1.00111
0.999065
0.999487
1.00162
1
1
1
1
1.00498
1.01086
1.00162
1.00144
1.00793
1.00253
0.990014
0.996881
1.00483
1
0.99663
1.00079
1.00073
0.998647
1.00039
1
1.00002
1.00002
1.00108
0.999275
0.998897
1.00246
0.997866
0.999321
1.00994
1.00592
0.995298
1.00581
1.01464
0.998547
0.993801
0.996019
1.00038
0.999408
0.995919
0.998176
0.99986
0.999257
1.00024
1.00227
1.00144
1.00709
1
1.001
1.00138
0.998536
1
0.999656
1.00349
1.00633
1.00176
1.00089
1.00795
1.00721
1.00389
0.994054
1.00964
0.998806
0.992092
0.999846
1.00087
0.997265
0.998638
1.00149
1.00144
1.00326
1.00847
1.00239
0.995189
0.999967
1.00333
1.00106
1.00661
1.00576
0.995458
1.00265
1.01496
1.00056
0.992905
1.02413

VECTORS velocity double
3.10565e-06 6.89563e-06 0
-0.000136388 8.84712e-05 0
-0.000256253 8.68758e-06 0
-0.000246834 -1.62147e-05 0
-0.000228765 2.46392e-05 0
-0.000411576 9.7941e-05 0
-0.00050971 -2.01928e-05 0
-0.000442984 -2.56422e-05 0
-0.000447998 4.6296e-05 0
-0.000556717 1.73594e-05 0
-0.000512481 -4.2205e-05 0
-0.000448831 -4.78582e-06 0
-0.000429529 -2.26173e-06 0
-0.000441099 -9.55055e-06 0
-0.000422528 1.52927e-06 0
-0.000416416 -1.32844e-05 0
-0.000378876 -1.36177e-05 0
-0.00040857 1.63279e-05 0
-0.000453004 2.41445e-05 0
-0.000387217 -7.98247e-05 0
-0.000247574 -1.53054e-05 0
-0.000258922 1.39326e-05 0
-0.000214487 -3.25402e-05 0
-9.59215e-05 -6.52818e-05 0
4.78964e-06 -7.81146e-08 0
-8.33037e-05 0.000138932 0
-0.000390824 0.000363223 0
-0.000594368 9.45217e-05 0
-0.000741256 4.77229e-05 0
-0.00107735 0.000272246 0
-0.00131009 0.000235601 0
-0.00123364 -2.65056e-05 0
-0.00137007 6.10242e-05 0
-0.00161101 0.000156176 0
-0.00155038 -4.58761e-05 0
-0.00133253 -0.000131994 0
-0.00140319 1.90895e-05 0
-0.00139797 -7.53592e-05 0
-0.00113985 -0.000124152 0
-0.00106262 4.42104e-05 0
-0.00128732 3.38979e-05 0
-0.00128082 -8.6846e-05 0
-0.00110925 -2.42434e-06 0
-0.00110969 5.69273e-05 0
-0.00119215 -0.000189951 0
-0.000936778 -0.00023128 0
-0.000576255 -0.000115673 0
-0.000415294 -0.000122756 0
-0.0003037 -0.000266481 0
-7.42069e-05 -0.000110866 0
-0.000119783 0.000448525 0
-0.000306331 0.000539049 0
-0.000686531 0.000512013 0
-0.00137091 0.000458677 0
-0.00161269 0.00048316 0
-0.00155368 0.00024761 0
-0.00182866 0.000230469 0
-0.00227017 0.000291551 0
-0.00220265 9.07027e-05 0
-0.00210834 -9.69891e-05 0
-0.00219968 -0.000164026 0
-0.0020103 -0.000147567 0
-0.00171612 -0.000208887 0
-0.00174456 -0.000201813 0
-0.00168001 -5.18185e-06 0
-0.00148779 7.24656e-05 0
-0.00157852 -2.13512e-05 0
-0.00177669 -7.0078e-05 0
-0.00154764 -0.000102938 0
-0.00134442 -0.000193583 0
-0.0013468 -0.000494825 0
-0.00103948 -0.000578636 0
-0.000479344 -0.000367292 0
-0.000234596 -0.000371371 0
-8.15119e-05 -0.000348332 0
6.65168e-05 0.000549877 0
-0.000417616 0.00102691 0
-0.00134417 0.00123018 0
-0.00174994 0.000829965 0
-0.00156417 0.000409088 0
-0.00174599 0.000486132 0
-0.00226933 0.000661465 0
-0.00254986 0.000506189 0
-0.00256452 3.42444e-05 0
-0.00268253 -8.90025e-05 0
-0.00266827 -0.000251377 0
-0.0022727 -0.00048228 0
-0.00191845 -0.000373415 0
-0.00188909 -0.000251108 0
-0.00174884 -0.00017272 0
-0.00152786 -4.4638e-06 0
-0.00159792 0.000155957 0
-0.00188845 -2.33865e-05 0
-0.00182567 -0.000319431 0
-0.00144754 -0.000425576 0
-0.0012359 -0.000586958 0
-0.00117253 -0.000938017 0
-0.000726608 -0.000934828 0
-0.00017397 -0.000671144 0
5.53665e-05 -0.000416043 0
-0.00014943 0.000676085 0
-0.00112549 0.00230506 0
-0.00168602 0.00153773 0
-0.00123583 0.0006003 0
-0.00118954 0.000485744 0
-0.00189058 0.00114396 0
-0.00233474 0.000940724 0
-0.00256327 0.000706824 0
-0.0030378 0.000342866 0
-0.0030852 -0.000239223 0
-0.00260406 -0.000602426 0
-0.0023999 -0.000723253 0
-0.00220483 -0.000677899 0
-0.00172186 -0.000512503 0
-0.00147474 -0.000272326 0
-0.00155479 -7.11032e-05 0
-0.00132852 0.000144849 0
-0.00106086 7.47278e-05 0
-0.00133465 -0.000230766 0
-0.00158301 -0.000823104 0
-0.00126509 -0.00078102 0
-0.000984023 -0.00101904 0
-0.000818642 -0.00138673 0
-0.000450365 -0.00128097 0
-3.99464e-05 -0.000378947 0
-0.000383774 0.00146799 0
-0.000939717 0.00288759 0
-0.000948929 0.00139936 0
-0.000712619 0.000162232 0
-0.000639604 0.000841074 0
-0.00103166 0.00177499 0
-0.00190888 0.00169483 0
-0.00303518 0.0012007 0
-0.00348775 0.00048681 0
-0.00307512 -0.000553954 0
-0.0024808 -0.00101546 0
-0.00227563 -0.000962411 0
-0.00205965 -0.00102527 0
-0.00164199 -0.000848645 0
-0.00118721 -0.000555286 0
-0.000834086 -0.000305134 0
-0.000589848 -5.40074e-05 0
-0.000471384 4.36209e-05 0
-0.000468218 -5.38195e-05 0
-0.000808022 -0.000505406 0
-0.00109046 -0.000972232 0
-0.000793337 -0.0014996 0
-0.000472984 -0.00146259 0
-0.000547537 -0.0014923 0
-0.000252093 -0.000833114 0
-0.000108672 0.00220364 0
-0.00016104 0.00249571 0
-3.32992e-05 0.00146002 0
0 0 0
-0.000180959 0.00122057 0
-0.000821083 0.00230929 0
-0.00198864 0.00313253 0
-0.00290063 0.00198277 0
-0.00268442 0.000124189 0
-0.00251325 -0.000893427 0
-0.00257181 -0.0013327 0
-0.0021162 -0.00136488 0
-0.00159632 -0.00128296 0
-0.00153899 -0.00117524 0
-0.00125708 -0.00108335 0
-0.000647718 -0.000695002 0
-0.000146046 -0.000402985 0
0 0 0
0 0 0
0 0 0
-0.000499412 -0.000706552 0
-0.000818984 -0.00192616 0
-0.000312686 -0.00167316 0
-6.44923e-05 -0.00129814 0
-2.32266e-05 -0.00122974 0
0.000405361 0.00176174 0
0.000228177 0.00298356 0
-0.00014299 0.00139164 0
0 0 0
-0.000104598 0.00154869 0
-0.00101474 0.00352347 0
-0.00173224 0.00366172 0
-0.00161462 0.00217722 0
-0.00137547 -7.68639e-05 0
-0.00137214 -0.000994636 0
-0.00155223 -0.00133707 0
-0.00169836 -0.00155132 0
-0.00179737 -0.00141373 0
-0.0016859 -0.00154324 0
-0.00118706 -0.00147227 0
-0.000590406 -0.00122812 0
-0.00011661 -0.00082 0
0 0 0
0 0 0
0 0 0
-4.20778e-05 -0.000442811 0
-0.000431551 -0.00142875 0
-0.000494096 -0.00238862 0
0.000111625 -0.00186021 0
0.000275572 -0.000906719 0
-0.000224118 0.00145046 0
-0.000341409 0.00360607 0
-7.43383e-05 0.00104605 0
0 0 0
-0.000112845 0.00186087 0
-0.000657111 0.00475159 0
-0.000722462 0.00324842 0
-0.000215759 0.0015281 0
0 0 0
-0.000434511 -0.000527657 0
-0.00119569 -0.000855594 0
-0.00188785 -0.00124326 0
-0.00202805 -0.00152122 0
-0.00143244 -0.00193871 0
-0.00111985 -0.00174299 0
-0.00128758 -0.00182488 0
-0.000633416 -0.00135884 0
0 0 0
0 0 0
0 0 0
9.72038e-05 -0.000349258 0
0.000193082 -0.00107961 0
-9.50219e-05 -0.0023383 0
-0.000462536 -0.00224046 0
-0.000213553 -0.000721649 0
-0.000287332 0.0022029 0
-6.84007e-05 0.00275818 0
0.000247751 0.00110071 0
0 0 0
-0.000786132 0.00266448 0
-0.0016782 0.00449779 0
-0.00147628 0.00335099 0
-0.00116059 0.00110728 0
-0.00109453 8.38251e-05 0
-0.00107574 -4.26621e-05 0
-0.00150575 6.41342e-05 0
-0.00206153 -0.000975116 0
-0.00199066 -0.00180359 0
-0.00206434 -0.00203125 0
-0.00211667 -0.00196111 0
-0.00182081 -0.00209581 0
-0.00190807 -0.0014069 0
-0.00179677 -0.000743293 0
-0.00095581 -0.000225603 0
-0.000721813 -6.73265e-05 0
-0.000539867 -0.000420998 0
0.000119105 -0.0019983 0
0.000359648 -0.00156304 0
-0.000344311 -0.00165808 0
-0.000343214 -0.00165225 0
0.00029433 0.00218376 0
0.000591742 0.00212705 0
0.00025487 0.00163007 0
-0.00129048 0.00121854 0
-0.0020065 0.00352736 0
-0.00205859 0.00447401 0
-0.00254213 0.00361973 0
-0.00217391 0.000580259 0
-0.0012253 -0.000400669 0
-0.00158047 0.000388793 0
-0.00224628 0.000333461 0
-0.00162255 -0.00117786 0
-0.00141262 -0.0016524 0
-0.00244907 -0.00156293 0
-0.00303926 -0.0019565 0
-0.00280638 -0.00205765 0
-0.0030655 -0.00105468 0
-0.00359514 -0.00133716 0
-0.00283896 -0.000876048 0
-0.00160134 -0.000729206 0
-0.00101735 -0.000610568 0
-0.00111783 -0.00229911 0
-0.000500485 -0.00175213 0
0.000349995 -0.00138285 0
0.000313361 -0.00157439 0
0.000425679 0.00108508 0
8.03318e-05 0.00338091 0
-0.000940276 0.00231885 0
-0.00140064 0.00198852 0
-0.00248933 0.00423217 0
-0.00358097 0.00522584 0
-0.00178681 0.00185851 0
0 0 0
-0.000906164 8.11802e-05 0
-0.000918407 0.000365138 0
0 0 0
-0.00100349 -0.000710691 0
-0.00245299 -0.000836076 0
-0.00258653 -0.00123527 0
-0.0026588 -0.00148732 0
-0.0037795 -0.00150941 0
-0.00406171 -0.00137746 0
-0.00345365 -0.00102206 0
-0.00376038 -0.00126568 0
-0.00356656 -0.00221032 0
-0.00189951 -0.00150618 0
-0.00143047 -0.00181623 0
-0.00136554 -0.00314494 0
-0.000313886 -0.00291786 0
0.000318702 -0.000800579 0
-0.000646648 0.00135164 0
-0.000820751 0.0036993 0
-0.000648557 0.00315836 0
-0.00246098 0.00320595 0
-0.00368595 0.00475934 0
-0.0020912 0.00404957 0
-0.000844948 0.000244665 0
-0.00194077 0.000309664 0
-0.0013417 -0.000251829 0
0 0 0
-0.000479694 0.000459459 0
-0.00161296 0.000571252 0
-0.00236243 -0.000172255 0
-0.00246356 -0.00110199 0
-0.00302024 -0.000772257 0
-0.00414248 -0.000759987 0
-0.00442258 -0.0015743 0
-0.00386243 -0.00114044 0
-0.00376178 -0.00138627 0
-0.0040867 -0.00245426 0
-0.00322528 -0.00274838 0
-0.00152543 -0.00260365 0
-0.00108681 -0.00261364 0
-0.00189608 -0.00316618 0
-0.000965912 -0.00147738 0
-0.000250265 0.00271122 0
-0.000342675 0.00232961 0
-0.000871411 0.00425589 0
-0.002831 0.00588706 0
-0.00337249 0.00418897 0
-0.00319102 0.00253557 0
-0.00486505 0.00200101 0
-0.00499603 -0.0001526 0
-0.00338438 -0.0017487 0
-0.00312377 -0.000503898 0
-0.00322926 0.00129505 0
-0.00278286 0.000959468 0
-0.00206631 -0.000205143 0
-0.00284436 -0.000295441 0
-0.0036957 -0.000210571 0
-0.00310447 -0.000660663 0
-0.00369696 -0.000611627 0
-0.00516853 -0.00154953 0
-0.00425541 -0.00223042 0
-0.00332505 -0.00185698 0
-0.0040808 -0.00354103 0
-0.00342491 -0.00524736 0
-0.00116706 -0.00272491 0
-0.000541447 -0.00271219 0
-0.000218845 -0.00358834 0
0.000508071 0.00231487 0
-0.00055743 0.00381476 0
-0.00246308 0.00568776 0
-0.00241225 0.00596907 0
-0.00223357 0.00464634 0
-0.00369976 0.00398747 0
-0.00431564 0.00281191 0
-0.00480571 -0.000455273 0
-0.00496885 -0.00232533 0
-0.00429565 -0.00110738 0
-0.00377623 0.000942269 0
-0.00298163 -4.5795e-05 0
-0.0024626 -0.000525375 0
-0.00250261 0.000230042 0
-0.00265063 -2.4415e-05 0
-0.00281582 -0.000516394 0
-0.00370294 0.000489348 0
-0.00466694 -0.0013126 0
-0.00473033 -0.00234081 0
-0.00364307 -0.0030678 0
-0.00287996 -0.00303222 0
-0.0038783 -0.00497995 0
-0.00294579 -0.00518408 0
-0.000195136 -0.00408565 0
0.00079683 -0.00243457 0
-3.96969e-05 0.00157668 0
-0.00137358 0.00687579 0
-0.00216594 0.00605033 0
-0.00160741 0.00441524 0
-0.00217596 0.00610312 0
-0.00333613 0.00567485 0
-0.00176392 0.000790647 0
0 0 0
-0.00178934 -0.00134708 0
-0.00292445 -0.00126121 0
-0.00136207 -0.000408133 0
-0.000944674 -0.000390055 0
-0.00168856 3.74242e-05 0
-0.00131304 -0.000179341 0
-0.00126201 0.000212027 0
-0.00299462 0.000873279 0
-0.00305496 0.000287133 0
-0.00162503 -0.000898734 0
-0.00390044 -0.000750813 0
-0.00598697 -0.0051141 0
-0.00383006 -0.00366321 0
-0.0027758 -0.00388264 0
-0.00347598 -0.00698885 0
-0.00293242 -0.00740799 0
-0.000513237 -0.00237455 0
-0.00158101 0.00394024 0
-0.00172117 0.0056011 0
-9.65975e-05 0.00577831 0
-0.00190582 0.0065345 0
-0.00261331 0.0055844 0
-0.000195777 0.00346273 0
0.000656783 0.00042385 0
0 0 0
0.000271726 -0.000418501 0
7.68663e-05 -0.0011418 0
-0.000179265 -0.00134033 0
0 0 0
-0.000252381 0.000287994 0
-0.000956494 0.000113524 0
-0.00153591 0.000752454 0
-0.00140904 0.00131781 0
-0.00106396 -0.000513633 0
-0.00119554 2.84012e-05 0
-0.0017005 0.000296335 0
-0.00329291 -0.0028525 0
-0.00502444 -0.00460587 0
-0.00361689 -0.00654543 0
-0.00193262 -0.00476772 0
-0.00390266 -0.0066528 0
-0.00212037 -0.00601896 0
0.000726317 0.00530078 0
0.000556435 0.00407473 0
-0.00186935 0.00719504 0
-0.00410266 0.00874086 0
-0.00300721 0.00389432 0
-0.00106624 0.00107762 0
-0.000241006 0.00118068 0
0 0 0
-0.000224891 -0.000473083 0
-0.000485757 -0.00102424 0
-0.00112075 -0.000627008 0
-0.000916419 -0.000230394 0
1.11875e-05 -4.99932e-05 0
-0.000524927 0.00130288 0
-0.000859338 0.00115559 0
0.000245556 8.55451e-05 0
-1.14908e-05 -0.000279928 0
-0.00065769 0.000356885 0
0 0 0
-0.000175758 0.000239026 0
-0.00363614 -0.00302572 0
-0.0066204 -0.00892304 0
-0.00356868 -0.00589238 0
-0.000282417 -0.00728034 0
0.00116576 -0.00822293 0
0.000869749 0.00284302 0
-0.00230365 0.00974993 0
-0.00606693 0.00954291 0
-0.00399363 0.00566686 0
-0.00227279 0.0035094 0
-0.00271141 0.00104219 0
-0.00129995 -0.00120381 0
0 0 0
-0.000538915 0.000519719 0
-0.00104749 -0.00103471 0
-0.00134943 -0.000372556 0
-0.00200573 -0.000601126 0
-0.00223138 -0.000179889 0
-0.000698187 0.000303026 0
0.000578911 0.000620463 0
0.000221647 0.000444272 0
2.43452e-06 0.0001025 0
1.41607e-05 -3.6193e-05 0
0 0 0
6.84292e-05 0.000626279 0
-0.000136999 -0.000175631 0
-0.00335927 -0.00418543 0
-0.00618986 -0.00971576 0
-0.00360972 -0.0131691 0
0.000937749 -0.00527174 0
-0.00197825 0.0044057 0
-0.00476254 0.0136625 0
-0.00401892 0.0089825 0
-0.00526144 0.00547171 0
-0.00955154 0.00435739 0
-0.00933911 -0.000156177 0
-0.00374028 -0.00515992 0
0 0 0
-0.00170179 0.00200445 0
-0.00340323 0.000146687 0
-0.0023045 -0.00125493 0
-0.00115376 -2.89223e-06 0
-0.00163981 -8.60415e-06 0
-0.00139922 -0.00121257 0
-0.000594404 -0.000834933 0
1.81476e-05 0.00154031 0
0 0 0
0 0 0
0 0 0
-4.83574e-05 4.99584e-05 0
0.000709109 0.000135382 0
0.000254103 -0.000251045 0
-0.00588893 -0.00611758 0
-0.0106466 -0.016914 0
-0.00318468 -0.00981433 0
-0.00256863 0.0111073 0
-0.00238018 0.00882612 0
-0.00158113 0.0101449 0
-0.00814168 0.0135458 0
-0.00881434 0.00279124 0
-0.00562225 -0.00283799 0
-0.00875254 -0.00656928 0
-0.0089445 -0.00249027 0
-0.00292765 -0.000350348 0
-0.00144992 0.00209033 0
-0.00427846 -0.00216765 0
-0.00346333 -0.000776161 0
-0.00111778 -0.00171389 0
-0.000264753 0.000212505 0
-0.0019147 -0.00105708 0
-0.000878852 -2.17376e-06 0
0 0 0
0 0 0
0 0 0
0 0 0
0 0 0
0 0 0
0 0 0
-0.00496507 -0.0110759 0
-0.00369327 -0.0209312 0
0.00360405 0.00956489 0
-0.00102413 0.0132139 0
-0.0108292 0.0149355 0
-0.0104487 0.0137844 0
-0.00536047 0.000750034 0
-0.0040238 -0.00195591 0
-0.00840995 -0.00233461 0
-0.0106705 -0.00511871 0
-0.00760512 -0.00379422 0
-0.00419371 0.00156072 0
-0.00293134 -0.00122356 0
-0.00186676 -0.00223661 0
-0.000666853 -0.00444988 0
0.00214448 0.000140292 0
0.000874035 0.000900804 0
0.000310108 -0.00135673 0
0 0 0
0 0 0
0 0 0
0 0 0
-0.00383337 0.00336152 0
-0.0112608 0.000145295 0
-0.00778083 -0.00186134 0
0.00283405 -0.0167765 0
0.00832542 -0.0177591 0
-0.00269919 0.00769949 0
-0.0133333 0.0293279 0
-0.0103267 0.0119687 0
0.000149879 0.00528275 0
0 0 0
-0.0018351 0.000183625 0
-0.00159865 7.88053e-05 0
-0.00307431 -0.00418369 0
-0.00587301 -0.00539723 0
-0.00280102 -0.0050027 0
0 0 0
0.000523233 -0.00450863 0
-0.0019917 -0.00259307 0
-0.00174686 -0.00399738 0
0.00145647 0.000834652 0
0.000151301 0.0027672 0
-0.0048541 -2.27724e-05 0
-0.00141574 -0.00174437 0
-0.000436234 0.00160005 0
-0.00702797 0.00589545 0
-0.00778578 0.00618635 0
-0.00448477 0.00163304 0
-0.00501153 -0.00467494 0
-0.00807194 -0.0311069 0
-0.000969078 -0.0100132 0
-0.00638081 0.0211493 0
-0.00706436 0.0230927 0
0.00589124 0.00238191 0
0.0161326 9.77443e-07 0
0.015572 0.00403765 0
0.012035 -0.000491994 0
0.0155964 -0.000994619 0
0.0165736 -0.000971527 0
0.0101361 -0.00151277 0
0.00565215 -0.00652007 0
0.0108217 -0.00375559 0
0.00783427 0.000687864 0
0 0 0
0.00227527 -0.00673551 0
0.00462234 9.92342e-05 0
0.00236427 0.00681044 0
0 0 0
0.00361691 -0.00588988 0
0.00502037 0.00272035 0
0.00401117 0.00870611 0
0.00593037 4.72137e-05 0
0.0124118 0.00130513 0
0.00763457 3.39593e-05 0
-0.00744623 -0.0226059 0
-0.0048119 -0.0220768 0
0.0234969 0.0152403 0
0.0515254 0.00352584 0
0.0541444 -0.00201143 0
0.0488546 -0.00177748 0
0.0523231 0.0037765 0
0.0559449 -0.0014528 0
0.0525489 -0.00116994 0
0.0510691 -5.67361e-05 0
0.0531933 0.00108785 0
0.0519826 -0.00202401 0
0.0435382 -0.00385349 0
0.0438426 0.00374747 0
0.049344 -0.000709577 0
0.0443617 -0.00350086 0
0.0381182 -0.000454442 0
0.044516 0.00400176 0
0.0490205 -0.00103405 0
0.044603 -0.00372319 0
0.0396574 0.0017472 0
0.0492556 0.00467502 0
0.0517777 -0.00173228 0
0.0479728 -0.000580943 0
0.052624 0.00410764 0
0.0513277 -0.00368109 0
0.0326898 -0.0192811 0


