# vtk DataFile Version 4.0
SiwiRVisFile
ASCII
DATASET STRUCTURED_POINTS
DIMENSIONS 50 50 1
ORIGIN 0 0 0
SPACING 1 1 1
POINT_DATA 2500


SCALARS flags double 1
LOOKUP_TABLE default
1
1
1
1
1
1
1
1
1
1
1
1
1
1
1
1
1
1
1
1
1
1
1
1
1
1
1
1
1
1
1
1
1
1
1
1
1
1
1
1
1
1
1
1
1
1
1
1
1
1
1
1
1
1
1
1
1
1
1
1
1
1
1
1
1
1
1
1
1
1
1
1
1
1
1
1
1
1
1
1
1
1
1
1
1
1
1
1
1
1
1
1
1
1
1
1
1
1
1
1
1
1
1
1
1
1
1
1
1
1
1
1
1
1
1
1
1
1
1
1
1
1
1
1
1
1
1
1
1
1
1
1
1
1
1
1
1
1
1
1
1
1
1
1
1
1
1
1
1
1
1
1
1
1
1
1
1
1
1
1
1
1
1
1
1
1
1
1
1
1
1
1
1
1
1
1
1
1
1
1
1
1
1
1
1
1
1
1
1
1
1
1
1
1
1
1
1
1
1
1
1
1
1
1
1
1
1
1
1
1
1
1
1
1
1
1
1
1
1
1
1
1
1
1
1
1
1
1
1
1
1
1
1
1
1
1
1
1
1
1
1
1
1
1
1
1
1
1
1
1
1
1
1
1
1
1
1
1
1
1
1
1
1
1
1
1
1
1
1
1
1
1
1
1
1
1
1
1
1
1
1
1
1
1
1
1
1
1
1
1
1
1
1
1
1
1
1
1
1
1
1
1
1
1
1
1
1
1
1
1
1
1
1
1
1
1
1
1
1
1
1
1
1
1
1
1
1
1
1
1
1
1
1
1
1
1
1
1
1
1
1
1
1
1
1
1
1
1
1
1
1
1
1
1
1
1
1
1
1
1
1
1
1
1
1
1
1
1
1
1
1
1
1
1
1
1
1
1
1
1
1
1
1
1
1
1
1
1
1
1
1
1
1
1
1
1
1
1
1
1
1
1
1
1
1
1
1
1
1
1
1
1
1
1
1
1
1
1
1
1
1
1
1
1
1
1
1
1
1
1
1
1
1
1
1
1
1
1
1
1
1
1
1
1
1
1
1
1
1
1
1
1
1
1
1
1
1
1
1
1
1
1
1
1
1
1
1
1
1
1
1
1
1
1
1
1
1
1
1
1
1
1
1
1
1
1
1
1
1
1
1
1
1
1
1
1
1
1
1
1
1
1
1
1
1
1
1
1
1
1
1
1
1
1
1
1
1
1
1
1
1
1
1
1
1
1
1
1
1
1
1
1
1
1
1
1
1
1
1
1
1
1
1
1
1
1
1
1
1
1
1
1
1
1
1
1
1
1
1
1
1
1
1
1
1
1
1
1
1
1
1
1
1
1
1
1
1
1
1
1
1
1
1
1
1
1
1
1
1
1
1
1
1
1
1
1
1
1
1
1
1
1
1
1
1
1
1
1
1
1
1
1
1
1
1
1
1
1
1
1
1
1
1
1
1
1
1
1
1
1
1
1
1
1
1
1
1
1
1
1
1
1
1
1
1
1
1
1
1
1
1
1
1
1
1
1
1
1
1
1
1
1
1
1
1
1
1
1
1
1
1
1
1
1
1
1
1
1
1
1
1
1
1
1
1
1
1
1
1
1
1
1
1
1
1
1
1
1
1
1
1
1
1
1
1
1
1
1
1
1
1
1
1
1
1
1
1
1
1
1
1
1
1
1
1
1
1
1
1
1
1
1
1
1
1
1
1
1
1
1
1
1
1
1
1
1
1
1
1
1
1
1
1
1
1
1
1
1
1
1
1
1
1
1
1
1
1
1
1
1
1
1
1
1
1
1
1
1
1
1
1
1
1
1
1
1
1
1
1
1
1
1
1
1
1
1
1
1
1
1
1
1
1
1
1
1
1
1
1
1
1
1
1
1
1
1
1
1
1
1
1
1
1
1
1
1
1
1
1
1
1
1
1
1
1
1
1
1
1
1
1
1
1
1
1
1
1
1
1
1
1
1
1
1
1
1
1
1
1
1
1
1
1
1
1
1
1
1
1
1
1
1
1
1
1
1
1
1
1
1
1
1
1
1
1
1
1
1
1
1
1
1
1
1
1
1
1
1
1
1
1
1
1
1
1
1
1
1
1
1
1
1
1
1
1
1
1
1
1
1
1
1
1
1
1
1
1
1
1
1
1
1
1
1
1
1
1
1
1
1
1
1
1
1
1
1
1
1
1
1
1
1
1
1
1
1
1
1
1
1
1
1
1
1
1
1
1
1
1
1
1
1
1
1
1
1
1
1
1
1
1
1
1
1
1
1
1
1
1
1
1
1
1
1
1
1
1
1
1
1
1
1
1
1
1
1
1
1
1
1
1
1
1
1
1
1
1
1
1
1
1
1
1
1
1
1
1
1
1
1
1
1
1
1
1
1
1
1
1
1
1
1
1
1
1
1
1
1
1
1
1
1
1
1
1
1
1
1
1
1
1
1
1
1
1
1
1
1
1
1
1
1
1
1
1
1
1
1
1
1
1
1
1
1
1
1
1
1
1
1
1
1
1
1
1
1
1
1
1
1
1
1
1
1
1
1
1
1
1
1
1
1
1
1
1
1
1
1
1
1
1
1
1
1
1
1
1
1
1
1
1
1
1
1
1
1
1
1
1
1
1
1
1
1
1
1
1
1
1
1
1
1
1
1
1
1
1
1
1
1
1
1
1
1
1
1
1
1
1
1
1
1
1
1
1
1
1
1
1
1
1
1
1
1
1
1
1
1
1
1
1
1
1
1
1
1
1
1
1
1
1
1
1
1
1
1
1
1
1
1
1
1
1
1
1
1
1
1
1
1
1
1
1
1
1
1
1
1
1
1
1
1
1
1
1
1
1
1
1
1
1
1
1
1
1
1
1
1
1
1
1
1
1
1
1
1
1
1
1
1
1
1
1
1
1
1
1
1
1
1
1
1
1
1
1
1
1
1
1
1
1
1
1
1
1
1
1
1
1
1
1
1
1
1
1
1
1
1
1
1
1
1
1
1
1
1
1
1
1
1
1
1
1
1
1
1
1
1
1
1
1
1
1
1
1
1
1
1
1
1
1
1
1
1
1
1
1
1
1
1
1
1
1
1
1
1
1
1
1
1
1
1
1
1
1
1
1
1
1
1
1
1
1
1
1
1
1
1
1
1
1
1
1
1
1
1
1
1
1
1
1
1
1
1
1
1
1
1
1
1
1
1
1
1
1
1
1
1
1
1
1
1
1
1
1
1
1
1
1
1
1
1
1
1
1
1
1
1
1
1
1
1
1
1
1
1
1
1
1
1
1
1
1
1
1
1
1
1
1
1
1
1
1
1
1
1
1
1
1
1
1
1
1
1
1
1
1
1
1
1
1
1
1
1
1
1
1
1
1
1
1
1
1
1
1
1
1
1
1
1
1
1
1
1
1
1
1
1
1
1
1
1
1
1
1
1
1
1
1
1
1
1
1
1
1
1
1
1
1
1
1
1
1
1
1
1
1
1
1
1
1
1
1
1
1
1
1
1
1
1
1
1
1
1
1
1
1
1
1
1
1
1
1
1
1
1
1
1
1
1
1
1
1
1
1
1
1
1
1
1
1
1
1
1
1
1
1
1
1
1
1
1
1
1
1
1
1
1
1
1
1
1
1
1
1
1
1
1
1
1
1
1
1
1
1
1
1
1
1
1
1
1
1
1
1
1
1
1
1
1
1
1
1
1
1
1
1
1
1
1
1
1
1
1
1
1
1
1
1
1
1
1
1
1
1
1
1
1
1
1
1
1
1
1
1
1
1
1
1
1
1
1
1
1
1
1
1
1
1
1
1
1
1
1
1
1
1
1
1
1
1
1
1
1
1
1
1
1
1
1
1
1
1
1
1
1
1
1
1
1
1
1
1
1
1
1
1
1
1
1
1
1
1
1
1
1
1
1
1
1
1
1
1
1
1
1
1
1
1
1
1
1
1
1
1
1
1
1
1
1
1
1
1
1
1
1
1
1
1
1
1
1
1
1
1
1
1
1
1
1
1
1
1
1
1
1
1
1
1
1
1
1
1
1
1
1
1
1
1
1
1
1
1
1
1
1
1
1
1
1
1
1
1
1
1
1
1
1
1
1
1
1
1
1
1
1
1
1
1
1
1
1
1
1
1
1
1
1
1
1
1
1
1
1
1
1
1
1
1
1
1
1
1
1
1
1
1
1
1
1
1
1
1
1
1
1
1
1
1
1
1
1
1
1
1
1
1
1
1
1
1
1
1
1
1
1
1
1
1
1
1
1
1
1
1
1
1
1
1
1
1
1
1
1
1
1
1
1
1
1
1
1
1
1
1
1
1
1
1
1
1
1
1
1
1
1
1
1
1
1
1
1
1
1
1
1
1
1
1
1
1
1
1
1
1
1
1
1
1
1
1
1
1
1
1
1
1
1
1
1
1
1
1
1
1
1
1
1
1
1
1
1
1
1
1
1
1
1
1
1
1
1
1
1
1
1
1
1
1
1
1
1
1
1
1
1
1
1
1
1
1
1
1
1
1
1
1
1
1
1
1
1
1
1
1
1
1
1
1
1
1
1
1
1
1
1
1
1
1
1
1
1
1
1
1
1
1
1
1
1
1
1
1
1
1
1
1
1
1
1
1
1
1
1
1
1
1
1
1
1
1
1
1
1
1
1
1
1
1
1
1
1
1
1
1
1
1
1
1
1
1
1
1
1
1
1
1
1
1
1
1
1
1
1
1
1
1
1
1
1
1
1
1
1
1
1
1
1
1
1
1
1
1
1
1
1
1
1
1
1
1
1
1
1
1
1
1
1
1
1
1
1
1
1
1
1
1
1
1
1
1
1
1
1
1
1
1
1
1
1
1
1
1
1
1
1
1
1
1
1
1
1
1
1
1
1
1
1
1
1
1
1
1
1
1
1
1
1
1
1
1
1
1
1
1
1
1
1
1
1
1
1
1
1
1
1
1
1
1
1
1
1
1
1
1
1
1
1
1
1
1
1
1
1
1
1
1
1
1
1
1
1
1
1
1
1
1
1
1
1
1
1
1
1
1
1
1
1
1
1
1
1
1
1
1
1
1
1
1
1
1
1
1
1
1
1
1
1
1
1
1
1
1
1
1
1
1
1
1
1
1
1
1
1
1
1
1
1
1
1
1
1
1
1
1
1
1
1
1
1
1
1
1
1
1
1
1
1
1
1
1
1
1
1
1
1
1
1
1
1
1
1
1
1
1
1
1
1
1
1
1
1
1
1
1
1
1
1
1
1
1
1
1
1
1
1
1
1
1
1
1
1
1
1
1
1
1
1
1
1
1
1
1
1
1
1
1
1
1
1
1
1
1
1
1
1
1
1
1
1
1
1
1
1
1
1
1
1
1
1
1
1
1
1
1
1
1
1
1
1
1
1
1
1
1
1
1
1
1
1
1
1
1
1
1
1
1
1
1
1
1
1
1
1
1
1
1
1
1
1
1
1
1
1
1
1
1
1
1
1
1
1
1
1
1
1
1
1
1
1
1
1
1
1
1
1
1
1
1
1
1
1
1
1
1
1
1
1
1
1
1
1
1
1
1
1
1
1
1
1
1
1
1
1
1
1
1
1
1
1
1
1
1
1
1
1
1
1
1
1
1
1
1
1
1
1
1
1
1
1
1
1
1
1
1
1
1
1
1
1
1
1
1
1
1
1
1
1
1
1
1
1
1
1
1
1
1
1
1
1

SCALARS density double 1
LOOKUP_TABLE default
0.999962
0.999962
0.999962
0.999962
0.999962
0.999962
0.999962
0.999962
0.999962
0.999962
0.999962
0.999962
0.999962
0.999962
0.999962
0.999962
0.999962
0.999962
0.999962
0.999962
0.999962
0.999962
0.999962
0.999962
0.999962
0.999962
0.999962
0.999962
0.999962
0.999962
0.999962
0.999962
0.999962
0.999962
0.999962
0.999962
0.999962
0.999962
0.999962
0.999962
0.999962
0.999962
0.999962
0.999962
0.999962
0.999962
0.999962
0.999962
0.999962
0.999961
0.999962
0.999962
0.999962
0.999962
0.999962
0.999962
0.999962
0.999962
0.999962
0.999962
0.999962
0.999962
0.999962
0.999962
0.999962
0.999962
0.999962
0.999962
0.999962
0.999962
0.999962
0.999962
0.999962
0.999962
0.999962
0.999962
0.999962
0.999962
0.999962
0.999962
0.999962
0.999962
0.999962
0.999962
0.999962
0.999962
0.999962
0.999962
0.999962
0.999962
0.999962
0.999962
0.999962
0.999962
0.999962
0.999962
0.999962
0.999962
0.999961
0.999962
0.999962
0.999961
0.999962
0.999962
0.999962
0.999962
0.999962
0.999962
0.999962
0.999962
0.999962
0.999962
0.999962
0.999962
0.999962
0.999961
0.999961
0.999961
0.999961
0.999961
0.999961
0.999961
0.999961
0.999962
0.999962
0.999962
0.999962
0.999962
0.999962
0.999962
0.999962
0.999962
0.999962
0.999962
0.999962
0.999962
0.999962
0.999962
0.999962
0.999962
0.999961
0.999961
0.999961
0.999961
0.999961
0.999962
0.999962
0.999962
0.999961
0.999962
0.999962
0.999962
0.999962
0.999962
0.999961
0.999962
0.999962
0.999962
0.999962
0.999962
0.999962
0.999961
0.999961
0.999961
0.999962
0.999961
0.999961
0.999962
0.999962
0.999962
0.999962
0.999962
0.999962
0.999962
0.999962
0.999962
0.999962
0.999962
0.999961
0.999962
0.999962
0.999961
0.999961
0.999962
0.999961
0.999961
0.999961
0.999961
0.999961
0.999961
0.999961
0.999961
0.999961
0.999961
0.999961
0.999961
0.999961
0.999961
0.999963
0.999961
0.999961
0.999962
0.999961
0.999962
0.999962
0.999962
0.999962
0.999961
0.999961
0.999961
0.999961
0.999961
0.999961
0.999962
0.999961
0.999962
0.999962
0.999963
0.999962
0.999962
0.999963
0.999962
0.999962
0.999962
0.999962
0.999961
0.999961
0.999961
0.999961
0.99996
0.999961
0.999961
0.999961
0.999961
0.999962
0.999962
0.999962
0.999962
0.999962
0.999962
0.999962
0.999962
0.999962
0.999962
0.999962
0.999962
0.999962
0.999961
0.999963
0.999961
0.999962
0.999962
0.999962
0.999962
0.999962
0.999962
0.999962
0.999962
0.999962
0.999962
0.999961
0.999962
0.999962
0.999962
0.999961
0.999962
0.999963
0.999961
0.999961
0.999963
0.999961
0.99996
0.999962
0.999962
0.999961
0.999962
0.999961
0.999961
0.999963
0.999962
0.99996
0.999963
0.999963
0.999961
0.999961
0.999963
0.999962
0.999962
0.999962
0.999962
0.999962
0.999962
0.999962
0.999962
0.999961
0.999961
0.999961
0.999962
0.999959
0.999962
0.999962
0.99996
0.999962
0.999962
0.999962
0.999961
0.999961
0.999961
0.999961
0.999961
0.999962
0.999963
0.999962
0.999961
0.999963
0.999963
0.999959
0.999959
0.999964
0.999961
0.999955
0.999961
0.999966
0.999958
0.999956
0.999968
0.999966
0.999957
0.999962
0.999969
0.999963
0.999959
0.999964
0.999964
0.999959
0.99996
0.999962
0.99996
0.99996
0.999961
0.999961
0.999961
0.999961
0.999961
0.999961
0.999961
0.999962
0.999963
0.999962
0.999963
0.999962
0.999963
0.999961
0.999961
0.999961
0.999961
0.999961
0.999961
0.999961
0.999961
0.999963
0.999962
0.99996
0.999963
0.999965
0.999957
0.999958
0.999969
0.99996
0.999953
0.999971
0.999966
0.999948
0.999967
0.999974
0.999948
0.999957
0.999976
0.999956
0.999952
0.99997
0.999963
0.999953
0.999964
0.999965
0.999958
0.99996
0.999963
0.999961
0.999961
0.999962
0.999963
0.999963
0.999963
0.999963
0.999962
0.999963
0.99996
0.999964
0.99996
0.99996
0.999962
0.99996
0.999962
0.999962
0.999962
0.999962
0.999961
0.999962
0.999963
0.999962
0.999959
0.999962
0.999964
0.999958
0.999954
0.999968
0.999969
0.999949
0.999958
0.999983
0.999962
0.999941
0.999972
0.99998
0.999943
0.999949
0.999981
0.999962
0.99994
0.999965
0.999975
0.999955
0.999956
0.99997
0.999967
0.99996
0.999962
0.999965
0.999962
0.999961
0.999962
0.999962
0.999961
0.999961
0.999962
0.999961
0.999961
0.999962
0.999962
0.999961
0.999961
0.999962
0.999961
0.999962
0.999961
0.999961
0.999962
0.999963
0.999963
0.999959
0.999962
0.999969
0.999952
0.999953
0.999983
0.999959
0.999928
0.999991
0.999993
0.999905
0.999955
1.00003
0.999932
0.999902
1.00002
0.99999
0.999891
0.999971
1.00002
0.99993
0.999933
0.999996
0.999964
0.999939
0.99997
0.99997
0.999953
0.99996
0.999963
0.999959
0.999959
0.999961
0.999961
0.999961
0.999962
0.999961
0.999964
0.99996
0.999965
0.99996
0.999959
0.999962
0.999962
0.999961
0.999961
0.999961
0.999963
0.999961
0.999961
0.999963
0.999962
0.999964
0.999958
0.999959
0.999975
0.999968
0.999945
0.999966
0.99998
0.999949
0.999949
0.999977
0.99996
0.999946
0.999972
0.99997
0.999948
0.999967
0.999974
0.999948
0.999953
0.999974
0.999957
0.999948
0.999962
0.999965
0.99996
0.999961
0.999961
0.999963
0.999963
0.999961
0.999962
0.999963
0.999961
0.999962
0.999962
0.999964
0.999963
0.999954
0.999958
0.999959
0.999961
0.999962
0.999963
0.999963
0.999966
0.999957
0.99996
0.999979
0.999947
0.999935
1.00001
0.999979
0.999877
0.999989
1.00006
0.999876
0.999893
1.00009
0.999965
0.999826
1.00002
1.00007
0.999853
0.999903
1.00009
0.999958
0.999837
1.00003
1.00005
0.999867
0.999937
1.00004
0.999946
0.999917
0.999989
0.999977
0.999946
0.999964
0.999966
0.999958
0.99996
0.999961
0.99996
0.999962
0.999961
0.999968
0.999965
0.999947
0.999951
0.999955
0.999955
0.999961
0.999961
0.999957
0.999963
0.999968
0.999945
0.999963
0.999988
0.999937
0.999934
1
0.999975
0.999907
0.999954
1.00001
0.999948
0.999918
0.999989
0.999995
0.999932
0.999941
0.999992
0.99998
0.999926
0.999949
1
0.999964
0.999925
0.999976
1.00001
0.999946
0.999928
0.999986
0.99998
0.999937
0.99996
0.999975
0.999954
0.999959
0.999966
0.99996
0.999964
0.999968
0.999968
0.99997
0.999977
0.99994
0.999942
0.999948
0.999946
0.999951
0.999964
0.999952
0.999942
0.999996
0.99996
0.999885
1.00001
1.00005
0.999849
0.999922
1.00011
0.999912
0.999843
1.00008
1.00001
0.999842
0.99998
1.00007
0.999918
0.999888
1.00003
1.00001
0.999862
0.99994
1.00008
0.999917
0.99985
1.00007
1.00001
0.999825
0.999995
1.00006
0.999884
0.999918
1.00003
0.999963
0.99993
0.999981
0.999971
0.99996
0.999971
0.999977
0.999977
0.999979
0.999985
0.999936
0.999928
0.999937
0.999946
0.999931
0.999957
0.999992
0.999922
0.999929
1.00004
0.999968
0.999865
0.999992
1.00005
0.999914
0.999899
1.00003
1.00001
0.999886
0.99996
1.00003
0.999938
0.999904
0.999991
0.999992
0.999922
0.999939
1.00002
0.999973
0.999888
0.999976
1.00003
0.999907
0.999908
1.00003
0.999993
0.99988
0.999944
1.00005
0.999952
0.99989
0.999992
0.999997
0.999935
0.999968
0.999989
0.999977
0.999983
0.999993
0.99998
0.999924
0.999906
0.999903
0.999941
0.999929
0.999883
0.99999
1.00002
0.999851
0.999937
1.0001
0.999911
0.999864
1.00007
0.999962
0.999858
1.00003
1
0.999897
0.999965
0.999991
0.999942
0.999917
0.999977
1
0.999924
0.999945
1
0.999983
0.999935
0.999956
1.00002
0.99993
0.999896
1.00005
0.999964
0.999862
1.00004
1
0.999842
0.999982
1.00005
0.999908
0.999937
1.00003
0.999993
0.999979
1.00001
1.00001
0.999993
0.999874
0.999908
0.99984
0.999855
0.999956
0.999867
0.999802
1
1.00002
0.999839
0.999909
1.00005
0.99996
0.999867
0.999973
1.00004
0.999909
0.999908
1.00002
0.999962
0.999926
0.999971
1.00002
0.999945
0.99991
1.00002
0.999978
0.999898
0.999953
1
0.99995
0.999895
1.00003
1.00001
0.999871
0.999957
1.00005
0.999945
0.99988
1.00002
1.00006
0.9999
0.99993
1.0001
1.00004
0.99997
1.00005
1.00007
1
1.00004
0.999779
0.999883
0.999826
0.999714
0.9998
0.999952
0.999807
0.999765
0.999989
0.999956
0.999864
0.999993
0.999978
0.99991
0.999998
0.999971
0.999939
0.99997
0.999956
1
0.999925
0.999931
1.00004
0.999949
0.999925
0.999999
0.999969
0.999881
0.999993
0.999992
0.999918
0.999972
0.99995
0.999974
0.999956
0.999929
0.999999
0.999943
0.999936
1.00004
0.999958
0.999943
1.00013
1.00008
0.999969
1.0001
1.00017
1.00007
1.00002
1.00011
0.999751
0.999636
0.999743
0.99976
0.999558
0.999683
0.999864
0.999744
0.999738
0.999915
0.999962
0.999856
0.999899
1.00006
0.999948
0.999868
1.00004
0.999999
0.999874
0.999925
1.00005
0.999967
0.999837
0.999994
1.00004
0.999876
0.99993
1.00009
0.999952
0.999864
1
1.00005
0.999911
0.999874
1.00007
0.999965
0.999843
1.00003
1.00006
0.999932
0.999993
1.00016
1.00012
1.00003
1.0002
1.00028
1.00011
1.00013
1.00022
1.00012
0.999653
0.999288
0.999334
0.999576
0.999501
0.999355
0.99949
0.999627
0.999609
0.999678
0.999814
0.999827
0.999882
0.99992
0.999957
0.999922
0.999893
1.00002
0.999989
0.999893
1.00001
0.999961
0.999921
0.999999
0.999925
0.999988
0.999935
0.999987
0.999958
0.999925
1.00002
0.999919
0.999906
1.00003
0.999979
0.999953
1
1.00002
1.00005
1.00007
1.0002
1.00024
1.00021
1.00034
1.00043
1.0003
1.00025
1.00045
1.00047
1.0002
0.99901
0.999254
0.999071
0.998942
0.999109
0.999189
0.999051
0.999228
0.999404
0.999383
0.999487
0.999812
0.999802
0.999697
0.999958
1.00008
0.999846
0.999895
1.00004
1.00004
0.999801
1.00001
1.00011
0.999836
0.999916
1.00001
1.00007
0.999817
0.999916
1.00011
0.999875
0.999877
1.00002
1.00006
0.999834
0.999948
1.00019
1.00007
1.00006
1.00036
1.00042
1.00037
1.00053
1.00067
1.00051
1.00058
1.00073
1.00061
1.00043
1.00069
0.998535
0.998882
0.998613
0.998525
0.998551
0.998767
0.99866
0.998718
0.998903
0.99905
0.999129
0.999348
0.999605
0.999726
0.99973
0.999878
0.999981
0.999867
0.999964
0.999931
1.00001
0.999918
0.999884
1.00004
0.999971
0.999953
0.999884
1.00003
0.999998
0.999904
0.999987
0.99996
1.00002
0.99992
1.00004
1.00014
1.00011
1.00024
1.00044
1.00058
1.00062
1.00075
1.00088
1.00087
1.00079
1.00096
1.00097
1.00091
1.0007
1.00098
0.99849
0.997933
0.997873
0.998378
0.998068
0.998067
0.998231
0.998219
0.998208
0.998519
0.998735
0.998684
0.999076
0.99946
0.999523
0.999606
0.999883
1.00002
0.999801
0.9999
1.00006
0.999966
0.999844
1.00002
1.00008
0.999832
0.999901
1.00006
0.999951
0.999857
1
1.0001
0.999903
1
1.00024
1.00029
1.00032
1.00064
1.00093
1.00084
1.001
1.00123
1.00116
1.00114
1.00131
1.00128
1.001
1.00143
1.00143
1.00096
0.997736
0.997592
0.997841
0.998106
0.997611
0.997817
0.997953
0.99798
0.997866
0.997901
0.998045
0.998389
0.998529
0.998777
0.999209
0.999546
0.999547
0.999766
1.00001
0.999936
0.999844
0.999989
1.00007
0.999839
0.999959
0.999968
1.00005
0.999855
0.999917
1.00006
0.999975
0.999879
1.00011
1.00028
1.00024
1.00051
1.00086
1.00099
1.00105
1.00134
1.00141
1.00139
1.00131
1.00135
1.00143
1.0016
1.00127
1.00144
1.00162
1.00155
0.997157
0.998019
0.997844
0.997729
0.997872
0.998255
0.997821
0.997722
0.998008
0.997815
0.997638
0.997858
0.998134
0.998133
0.998558
0.999038
0.999365
0.999379
0.999871
0.999878
0.999821
0.99992
1.00001
1.00001
0.999712
1.00018
0.999945
0.999887
0.999998
1.00006
1.00002
0.999995
1.0004
1.0004
1.00062
1.00098
1.00129
1.00124
1.00143
1.0016
1.00143
1.00129
1.00158
1.00152
1.00119
1.0015
1.00168
1.00154
1.00132
1.00204
0.997563
0.99799
0.99756
0.99793
0.998114
0.998098
0.998074
0.998085
0.997966
0.997953
0.997842
0.99744
0.997588
0.997964
0.997917
0.998255
0.998866
0.99938
0.999171
0.999805
0.999987
0.999949
0.999821
0.999905
1.00021
0.999711
0.999971
1.0001
0.999947
0.999902
1.00004
1.0006
1.00035
1.00072
1.00124
1.00145
1.00135
1.00167
1.00181
1.00147
1.00144
1.00154
1.00146
1.00149
1.00159
1.00155
1.00163
1.002
1.00161
1.00179
0.997824
0.997557
0.997637
0.998413
0.997818
0.997678
0.99831
0.998604
0.997933
0.998124
0.998273
0.997943
0.997427
0.997685
0.997811
0.997789
0.998228
0.998749
0.999272
0.999291
0.999828
0.9998
0.999868
1.00003
0.99992
0.999988
0.999864
1.00003
1.00006
1.00002
1.00045
1.00042
1.00083
1.00123
1.00153
1.00148
1.00161
1.00186
1.00148
1.00132
1.00152
1.00175
1.00128
1.0015
1.00207
1.00195
1.0014
1.00204
1.00213
1.00181
0.99755
0.997927
0.997666
0.997572
0.997502
0.997964
0.997883
0.99784
0.998392
0.998245
0.998177
0.998268
0.998076
0.99737
0.997598
0.997695
0.997691
0.997959
0.998744
0.999196
0.999098
0.99979
0.999999
0.999821
0.999783
1.0001
1.00009
0.999867
1.00005
1.00063
1.00051
1.00079
1.00146
1.00165
1.00156
1.00173
1.00201
1.00148
1.0014
1.00165
1.00162
1.00147
1.00203
1.00193
1.0018
1.00218
1.00219
1.00199
1.00183
1.00228
0.997503
0.998325
0.997513
0.997264
0.99755
0.998017
0.997302
0.997282
0.99821
0.99822
0.997914
0.998306
0.998369
0.998039
0.997385
0.997656
0.997462
0.997762
0.998003
0.998732
0.999256
0.999286
0.999812
0.999852
0.999998
0.999886
0.999999
1.00003
1.00043
1.00044
1.00082
1.00143
1.00156
1.00181
1.00176
1.00207
1.0016
1.00144
1.00164
1.00193
1.0017
1.00169
1.00242
1.0023
1.00179
1.00204
1.00241
1.0022
1.00159
1.00232
0.998245
0.997898
0.997441
0.998424
0.997817
0.997419
0.997742
0.997923
0.997462
0.997622
0.998345
0.998192
0.998213
0.998395
0.998225
0.997329
0.997786
0.997559
0.99762
0.997937
0.998867
0.999228
0.999205
0.999899
0.999981
0.99988
0.999924
1.00052
1.00048
1.00068
1.00146
1.00175
1.00178
1.00164
1.00218
1.00154
1.00145
1.00177
1.00178
1.00155
1.00215
1.00231
1.00181
1.00191
1.00243
1.00194
1.00148
1.00236
1.00207
1.00172
0.997965
0.997724
0.997701
0.99827
0.997746
0.997344
0.997866
0.997564
0.997289
0.997182
0.997957
0.99781
0.997862
0.9983
0.998425
0.997993
0.997287
0.997476
0.997409
0.997764
0.997986
0.998793
0.999351
0.999435
0.999789
1.00003
1.00032
1.00034
1.00078
1.00148
1.00165
1.00188
1.00199
1.0023
1.00179
1.00151
1.00172
1.00205
1.00199
1.00192
1.0025
1.00235
1.00223
1.00195
1.00244
1.00215
1.00185
1.0022
1.00227
1.00208
0.997089
0.99833
0.997723
0.996936
0.997578
0.998189
0.997407
0.997151
0.998042
0.997712
0.996865
0.997711
0.998147
0.998078
0.997942
0.998517
0.998021
0.997388
0.997766
0.997494
0.997722
0.998242
0.999118
0.999437
0.999468
1.00023
1.00031
1.00048
1.00122
1.0017
1.00189
1.00176
1.00223
1.00183
1.00142
1.002
1.00192
1.0017
1.00206
1.00278
1.00201
1.00163
1.00264
1.00235
1.00163
1.00221
1.00292
1.00207
1.00164
1.00276
0.99715
0.997765
0.997137
0.997343
0.997657
0.997738
0.997714
0.997657
0.998011
0.997624
0.997547
0.997411
0.997793
0.997627
0.998067
0.998216
0.998375
0.997926
0.997057
0.997415
0.997571
0.997873
0.998259
0.999074
0.999847
0.999827
1.00049
1.00126
1.00159
1.00184
1.00206
1.00259
1.0019
1.00157
1.00185
1.00191
1.00215
1.00202
1.00235
1.00215
1.00217
1.00188
1.00215
1.00203
1.00213
1.00204
1.00227
1.00253
1.00207
1.00242
0.997825
0.996529
0.996942
0.998195
0.997562
0.996546
0.998029
0.998052
0.997208
0.997182
0.998178
0.997481
0.996659
0.997912
0.998179
0.997774
0.997878
0.998282
0.997799
0.997175
0.997564
0.99759
0.998016
0.998816
0.999518
1.00007
1.00069
1.00146
1.00186
1.00198
1.00246
1.00207
1.00171
1.00208
1.00218
1.00171
1.0019
1.003
1.0023
1.00163
1.00263
1.00262
1.00186
1.00184
1.00325
1.00222
1.00162
1.00267
1.0031
1.00178
0.996854
0.997391
0.997456
0.99724
0.997213
0.997199
0.997209
0.997289
0.997664
0.997495
0.997559
0.997774
0.997779
0.997325
0.997672
0.997829
0.998314
0.998167
0.998212
0.997755
0.996989
0.997555
0.998005
0.998357
0.999127
1.0003
1.00112
1.00146
1.00194
1.00264
1.00211
1.00171
1.00188
1.00175
1.00199
1.00212
1.00244
1.00201
1.00198
1.0023
1.0023
1.002
1.00257
1.00253
1.00247
1.00254
1.00268
1.00217
1.00227
1.00282
0.996247
0.998017
0.997366
0.99619
0.997159
0.99794
0.996998
0.996478
0.998081
0.997833
0.997112
0.997522
0.998089
0.997404
0.996938
0.998196
0.998047
0.997713
0.99787
0.997948
0.997426
0.996986
0.997538
0.998214
0.999096
1.0003
1.00122
1.00195
1.00263
1.00239
1.00203
1.00215
1.00227
1.00192
1.00169
1.00283
1.00244
1.00176
1.00231
1.00275
1.00203
1.00168
1.00322
1.00264
1.00189
1.00256
1.00356
1.00238
1.00192
1.0033
0.998237
0.996968
0.997174
0.998019
0.997703
0.996795
0.998218
0.998004
0.997167
0.997505
0.998145
0.997689
0.997187
0.997985
0.99788
0.997171
0.997779
0.998257
0.998246
0.997916
0.997927
0.997553
0.99717
0.998199
0.999346
1.00007
1.00121
1.0024
1.00228
1.00195
1.0021
1.00189
1.0017
1.00199
1.00261
1.00203
1.00186
1.00269
1.00224
1.0017
1.00237
1.00273
1.00186
1.00171
1.00321
1.00211
1.00181
1.00276
1.00306
1.00161
0.997352
0.996237
0.996836
0.998242
0.997021
0.996345
0.997714
0.997746
0.996424
0.996494
0.998076
0.997427
0.996901
0.997624
0.997862
0.997334
0.997258
0.998271
0.998029
0.997768
0.997754
0.997533
0.997435
0.997702
0.998914
1.00048
1.00179
1.00225
1.00235
1.00231
1.00226
1.00192
1.00165
1.00263
1.00258
1.00199
1.00221
1.00294
1.00245
1.0018
1.00334
1.0034
1.00226
1.00233
1.00357
1.00282
1.00198
1.00305
1.00364
1.00279
0.996438
0.998258
0.997974
0.995745
0.997418
0.99826
0.996902
0.996167
0.998323
0.998051
0.996666
0.997771
0.998464
0.997733
0.997306
0.998159
0.998105
0.997286
0.998093
0.99846
0.997941
0.997656
0.997804
0.997989
0.998859
1.00065
1.00173
1.00202
1.00226
1.00216
1.00163
1.00183
1.00259
1.00189
1.00171
1.00256
1.00235
1.00148
1.00201
1.00319
1.00193
1.00162
1.00377
1.0031
1.00174
1.00254
1.00436
1.00187
1.00189
1.00375
0.997104
0.99827
0.997161
0.996422
0.997237
0.997834
0.996907
0.996602
0.99759
0.998005
0.997132
0.997075
0.998125
0.997572
0.99732
0.997596
0.997637
0.997423
0.997581
0.998187
0.997997
0.997666
0.997776
0.99831
0.999304
1.00039
1.00144
1.00217
1.00238
1.00203
1.00176
1.00236
1.00254
1.00228
1.00235
1.00262
1.00243
1.00182
1.00273
1.00286
1.00206
1.00248
1.00338
1.0029
1.00239
1.00278
1.00343
1.00292
1.00219
1.00299
0.998665
0.994836
0.995881
0.998735
0.9967
0.99479
0.997906
0.997902
0.996069
0.99647
0.998246
0.997138
0.996133
0.99791
0.998166
0.997169
0.997478
0.998214
0.997973
0.997451
0.998199
0.998475
0.997933
0.998335
0.999451
1.00052
1.00161
1.00214
1.00168
1.00177
1.00247
1.00202
1.00172
1.00242
1.00287
1.00187
1.00188
1.00373
1.00282
1.00177
1.0035
1.0039
1.00218
1.00198
1.00515
1.00317
1.00147
1.00422
1.00526
1.00138
0.996163
0.996881
0.997309
0.997024
0.997326
0.996749
0.997374
0.997482
0.997403
0.997208
0.997336
0.997713
0.997899
0.997654
0.997974
0.998079
0.997989
0.99781
0.997777
0.998021
0.998073
0.998301
0.99854
0.998806
0.99959
1.00062
1.00145
1.00164
1.00172
1.00198
1.00205
1.00212
1.00213
1.00208
1.002
1.0019
1.00227
1.00227
1.00234
1.00271
1.00287
1.00247
1.00265
1.00271
1.00306
1.00275
1.00348
1.00262
1.0031
1.00412
0.994459
0.999092
0.99697
0.993746
0.996843
0.998993
0.995725
0.994857
0.998419
0.997256
0.995273
0.996683
0.998232
0.99698
0.996288
0.99802
0.997872
0.996798
0.99738
0.997977
0.99753
0.997676
0.998713
0.999217
0.999677
1.00074
1.00123
1.00156
1.00237
1.0024
1.00193
1.00256
1.00326
1.00221
1.00178
1.00351
1.00304
1.00177
1.00319
1.00474
1.00291
1.0015
1.00494
1.00429
1.00116
1.00349
1.00636
1.003
1.00148
1.00562
0.998332
0.995557
0.996061
0.997535
0.997347
0.995846
0.997804
0.997659
0.996832
0.997247
0.997622
0.997717
0.997376
0.997983
0.998167
0.997883
0.998035
0.998451
0.998218
0.998005
0.998307
0.998872
0.999219
0.999655
1.00022
1.00072
1.00102
1.00121
1.00133
1.00171
1.00199
1.00186
1.00157
1.00192
1.00221
1.00194
1.00207
1.00266
1.00239
1.00232
1.00275
1.00333
1.00235
1.00225
1.00449
1.00278
1.00245
1.00414
1.00503
1.00148
0.997724
0.993446
0.995269
0.999926
0.99539
0.993883
0.997678
0.998118
0.995271
0.995568
0.998111
0.997059
0.995819
0.996979
0.997599
0.996936
0.997079
0.997797
0.997486
0.997081
0.997619
0.998124
0.99845
0.999447
1.0003
1.00078
1.0014
1.00199
1.00194
1.00226
1.00287
1.00248
1.00203
1.00289
1.00319
1.00234
1.0028
1.00435
1.00324
1.00184
1.00429
1.00488
1.00203
1.0024
1.00633
1.00456
1.00073
1.00536
1.00664
1.00298
0.993312
0.999216
0.998737
0.993268
0.997707
0.998229
0.996546
0.995561
0.998462
0.998224
0.996089
0.997464
0.99835
0.997456
0.997247
0.998513
0.998556
0.997677
0.998353
0.998821
0.998165
0.998373
0.99952
1.00033
1.00076
1.00098
1.00107
1.0012
1.00177
1.00184
1.00121
1.00149
1.00227
1.00163
1.00149
1.00259
1.00266
1.00187
1.00255
1.00402
1.00199
1.00158
1.00447
1.00367
1.00188
1.00272
1.0075
1.00163
1.00141
1.00782
0.995011
1.00008
0.995217
0.992946
0.996466
0.997997
0.994925
0.994982
0.997749
0.996975
0.995687
0.996571
0.997559
0.996778
0.996704
0.997693
0.997628
0.997129
0.997705
0.997776
0.99731
0.997798
0.999002
0.999637
1.00042
1.0013
1.00163
1.00169
1.0025
1.00276
1.0021
1.00212
1.00286
1.0025
1.00235
1.00353
1.00356
1.00243
1.00324
1.00446
1.00317
1.00206
1.00515
1.00523
1.00226
1.00385
1.00739
1.0048
1.00161
1.00594
1.00053
0.989166
0.994651
1.00163
0.997396
0.993087
0.998336
0.999073
0.995531
0.996513
0.99889
0.997808
0.995826
0.997537
0.998565
0.997539
0.997504
0.998655
0.998522
0.997958
0.998465
0.998948
0.999372
1.00026
1.00125
1.00155
1.00164
1.00149
1.00116
1.00141
1.00188
1.00127
1.00099
1.00238
1.00283
1.00168
1.00229
1.00436
1.00273
1.0013
1.00353
1.0048
1.0011
1.00173
1.00726
1.00348
0.999194
1.00632
1.01094
0.998535
0.993449
0.99236
0.99489
0.997303
0.995253
0.994598
0.996882
0.996377
0.99566
0.996833
0.997335
0.996614
0.996417
0.9972
0.997417
0.9974
0.997688
0.998035
0.997688
0.99759
0.99775
0.997761
0.998499
1.00007
1.00116
1.00167
1.00206
1.00259
1.0024
1.00202
1.00219
1.00224
1.00198
1.00257
1.0031
1.00291
1.00284
1.00375
1.00354
1.00252
1.00293
1.00454
1.00368
1.00281
1.0055
1.00563
1.0031
1.00513
1.00824
1.00878
0.99175
1.00576
0.997572
0.989731
0.997575
0.999919
0.994957
0.994962
0.998877
0.998101
0.995316
0.996958
0.998269
0.996769
0.996534
0.998262
0.998448
0.997812
0.99838
0.998578
0.99774
0.998077
0.999033
0.999798
1.00089
1.00234
1.00253
1.00223
1.00227
1.00172
1.00062
1.00119
1.00223
1.00156
1.00181
1.00411
1.00372
1.00158
1.00321
1.00532
1.00154
1.00077
1.00609
1.00565
0.998945
1.00423
1.01194
1.00072
0.996468
1.02253

VECTORS velocity double
1.79815e-07 4.53062e-07 0
-7.66591e-07 -5.69926e-08 0
-7.1518e-07 -6.36605e-08 0
-6.48791e-07 -6.98822e-08 0
-5.71242e-07 -7.57183e-08 0
-4.86973e-07 -8.13437e-08 0
-4.01111e-07 -8.71438e-08 0
-3.19453e-07 -9.36238e-08 0
-2.47961e-07 -1.00982e-07 0
-1.91674e-07 -1.08694e-07 0
-1.53851e-07 -1.15815e-07 0
-1.36303e-07 -1.21841e-07 0
-1.40203e-07 -1.26732e-07 0
-1.657e-07 -1.2997e-07 0
-2.1085e-07 -1.30635e-07 0
-2.72151e-07 -1.28715e-07 0
-3.46102e-07 -1.24914e-07 0
-4.29109e-07 -1.19069e-07 0
-5.1637e-07 -1.1043e-07 0
-6.02256e-07 -9.90501e-08 0
-6.81401e-07 -8.53902e-08 0
-7.48803e-07 -6.95704e-08 0
-7.9981e-07 -5.18285e-08 0
-8.30551e-07 -3.26678e-08 0
-8.38157e-07 -1.25276e-08 0
-8.20817e-07 8.12025e-09 0
-7.77928e-07 2.86978e-08 0
-7.10114e-07 4.87181e-08 0
-6.19122e-07 6.77148e-08 0
-5.07806e-07 8.51435e-08 0
-3.79947e-07 1.00711e-07 0
-2.39854e-07 1.14235e-07 0
-9.24025e-08 1.25185e-07 0
5.70417e-08 1.33425e-07 0
2.03685e-07 1.39617e-07 0
3.4369e-07 1.43844e-07 0
4.7307e-07 1.45326e-07 0
5.876e-07 1.43999e-07 0
6.84376e-07 1.40701e-07 0
7.62364e-07 1.35875e-07 0
8.21374e-07 1.29501e-07 0
8.61706e-07 1.22042e-07 0
8.85002e-07 1.14416e-07 0
8.94629e-07 1.07141e-07 0
8.94868e-07 1.0003e-07 0
8.89879e-07 9.26005e-08 0
8.83236e-07 8.45022e-08 0
8.77952e-07 7.56072e-08 0
8.76585e-07 6.59143e-08 0
1.34698e-06 -1.88258e-07 0
7.7699e-07 2.78123e-09 0
1.06493e-06 9.92958e-08 0
2.70102e-07 -6.3241e-08 0
2.31009e-07 -6.19509e-08 0
1.91406e-07 -6.24747e-08 0
1.51651e-07 -6.66719e-08 0
1.0914e-07 -7.73658e-08 0
5.86224e-08 -9.66575e-08 0
-4.43837e-09 -1.23447e-07 0
-8.04317e-08 -1.53966e-07 0
-1.67109e-07 -1.85894e-07 0
-2.63567e-07 -2.18703e-07 0
-3.6784e-07 -2.48063e-07 0
-4.71333e-07 -2.67012e-07 0
-5.64009e-07 -2.76146e-07 0
-6.4434e-07 -2.81197e-07 0
-7.14169e-07 -2.79326e-07 0
-7.68592e-07 -2.64483e-07 0
-8.029e-07 -2.4143e-07 0
-8.2098e-07 -2.15646e-07 0
-8.27033e-07 -1.8258e-07 0
-8.20081e-07 -1.4039e-07 0
-8.00321e-07 -9.3611e-08 0
-7.70193e-07 -4.33618e-08 0
-7.31104e-07 9.92723e-09 0
-6.84233e-07 6.40165e-08 0
-6.3091e-07 1.17337e-07 0
-5.72601e-07 1.67612e-07 0
-5.10458e-07 2.14384e-07 0
-4.44422e-07 2.56505e-07 0
-3.76445e-07 2.89384e-07 0
-3.09389e-07 3.14777e-07 0
-2.40623e-07 3.37155e-07 0
-1.67434e-07 3.51008e-07 0
-9.52128e-08 3.51586e-07 0
-2.90138e-08 3.4492e-07 0
3.33408e-08 3.33795e-07 0
9.11314e-08 3.12453e-07 0
1.35652e-07 2.80326e-07 0
1.60152e-07 2.44389e-07 0
1.6494e-07 2.08986e-07 0
1.51757e-07 1.74696e-07 0
1.21341e-07 1.43943e-07 0
7.73541e-08 1.20601e-07 0
2.77775e-08 1.05853e-07 0
-1.86554e-08 9.76546e-08 0
-5.59588e-08 9.32092e-08 0
-8.13488e-08 9.06574e-08 0
2.72816e-07 6.65715e-09 0
1.03358e-06 9.94363e-08 0
3.83439e-07 -2.07681e-08 0
3.77855e-07 -3.42138e-07 0
5.94705e-07 -4.63219e-08 0
6.18047e-07 -3.82215e-08 0
6.0811e-07 -3.98418e-08 0
5.73138e-07 -5.44465e-08 0
4.97253e-07 -8.96824e-08 0
3.68214e-07 -1.45008e-07 0
1.89368e-07 -2.09555e-07 0
-2.34398e-08 -2.75075e-07 0
-2.5652e-07 -3.41665e-07 0
-4.92707e-07 -3.96962e-07 0
-6.90852e-07 -4.15077e-07 0
-8.07752e-07 -4.00436e-07 0
-8.41039e-07 -3.8303e-07 0
-8.00764e-07 -3.49792e-07 0
-6.6152e-07 -2.72709e-07 0
-4.13609e-07 -1.92923e-07 0
-1.08547e-07 -1.47875e-07 0
2.12014e-07 -9.66719e-08 0
5.47749e-07 -2.80302e-08 0
8.72245e-07 1.16002e-08 0
1.13386e-06 2.80852e-08 0
1.31158e-06 5.52893e-08 0
1.39973e-06 7.79713e-08 0
1.3823e-06 8.70108e-08 0
1.25768e-06 1.05847e-07 0