# vtk DataFile Version 4.0
SiwiRVisFile
ASCII
DATASET STRUCTURED_POINTS
DIMENSIONS 25 25 1
ORIGIN 0 0 0
SPACING 1 1 1
POINT_DATA 625

SCALARS flags double 1
LOOKUP_TABLE default
1
1
1
1
1
1
1
1
1
1
1
1
1
1
1
1
1
1
1
1
1
1
1
1
1
1
1
1
1
1
1
1
1
1
1
1
1
1
1
1
1
1
1
1
1
1
1
1
1
1
1
1
1
1
1
1
1
1
1
1
1
1
1
1
1
1
1
1
1
1
1
1
1
1
1
1
1
1
1
1
1
1
1
1
1
1
1
1
1
1
1
1
1
1
1
1
1
1
1
1
1
1
1
1
1
1
1
1
1
1
1
1
1
1
1
1
1
1
1
1
1
1
1
1
1
1
1
1
1
1
1
1
1
1
1
1
1
1
1
1
1
1
1
1
1
1
1
1
1
1
1
1
1
1
1
1
1
1
1
1
1
1
1
1
1
1
1
1
1
1
1
1
1
1
1
1
1
1
1
1
1
1
1
1
1
1
1
1
1
1
1
1
1
1
1
1
1
1
1
1
1
1
1
1
1
1
1
1
1
1
1
1
1
1
1
1
1
1
1
1
1
1
1
1
1
1
1
1
1
1
1
1
1
1
1
1
1
1
1
1
1
1
1
1
1
1
1
1
1
1
1
1
1
1
1
1
1
1
1
1
1
1
1
1
1
1
1
1
1
1
1
1
1
1
1
1
1
1
1
1
1
1
1
1
1
1
1
1
1
1
1
1
1
1
1
1
1
1
1
1
1
1
1
1
1
1
1
1
1
1
1
1
1
1
1
1
1
1
1
1
1
1
1
1
1
1
1
1
1
1
1
1
1
1
1
1
1
1
1
1
1
1
1
1
1
1
1
1
1
1
1
1
1
1
1
1
1
1
1
1
1
1
1
1
1
1
1
1
1
1
1
1
1
1
1
1
1
1
1
1
1
1
1
1
1
1
1
1
1
1
1
1
1
1
1
1
1
1
1
1
1
1
1
1
1
1
1
1
1
1
1
1
1
1
1
1
1
1
1
1
1
1
1
1
1
1
1
1
1
1
1
1
1
1
1
1
1
1
1
1
1
1
1
1
1
1
1
1
1
1
1
1
1
1
1
1
1
1
1
1
1
1
1
1
1
1
1
1
1
1
1
1
1
1
1
1
1
1
1
1
1
1
1
1
1
1
1
1
1
1
1
1
1
1
1
1
1
1
1
1
1
1
1
1
1
1
1
1
1
1
1
1
1
1
1
1
1
1
1
1
1
1
1
1
1
1
1
1
1
1
1
1
1
1
1
1
1
1
1
1
1
1
1
1
1
1
1
1
1
1
1
1
1
1
1
1
1
1
1
1
1
1
1
1
1
1
1
1
1
1
1
1
1
1
1
1
1
1
1
1
1
1
1
1
1
1
1
1
1
1
1
1
1
1
1
1
1
1
1
1
1
1
1
1
1
1
1
1
1
1
1
1
1
1
1
1
1
1
1
1
1
1
1
1
1

SCALARS density double 1
LOOKUP_TABLE default
0.999752
0.999782
0.999896
0.999776
0.999703
0.999932
0.999938
0.999662
0.99981
1.00011
0.999822
0.999647
1.00008
1.00008
0.99964
0.999868
1.00023
0.999832
0.999692
1.00019
1.0001
0.999663
1
1.00027
0.999805
1.00006
0.999522
0.999695
1.00011
0.999804
0.99959
0.999923
1.00001
0.999739
0.999785
0.999984
0.999922
0.999835
0.999879
0.999934
0.999967
0.999918
0.999841
0.999968
1.00008
0.999901
0.999822
1.00009
1.0001
0.999783
0.999737
0.999932
0.999784
0.999742
0.999914
0.999826
0.999714
0.999958
0.999946
0.999667
0.999899
1.00011
0.999742
0.999751
1.00016
0.999934
0.999634
1.00008
1.00018
0.999654
0.99987
1.00034
0.999872
0.999624
1.00024
0.999603
1.00012
0.999912
0.999491
0.999816
1.0001
0.999779
0.999621
0.999972
1.00003
0.999744
0.999783
1.00002
0.999974
0.999789
0.999862
1.00003
0.999972
0.999836
0.999919
1.00005
1
0.999889
0.999938
1.00005
1.00003
0.99948
0.99973
1.00002
0.999778
0.999709
0.999987
0.999823
0.999708
1.00001
0.999913
0.999708
1
1.00003
0.999699
0.999914
1.00015
0.999745
0.999749
1.00031
0.999995
0.999544
1.00015
1.00036
0.999605
0.999797
0.999393
0.999731
1.00012
0.999852
0.999562
0.999865
1.0001
0.999735
0.99963
1.00002
1.00007
0.999744
0.999784
1.00009
0.999946
0.999703
0.999947
1.0001
0.999874
0.999881
1.00009
0.999986
0.999915
1.00004
0.999228
1.0002
0.999749
1
0.999898
1.00008
0.999544
0.99967
1.00005
0.999826
0.999805
1.00002
0.999857
0.99982
1.00007
0.99989
0.999705
1
1
1
0.999987
1.00046
0.999762
0.999569
1.00045
0.999676
0.999724
0.999429
1
0.999753
0.999933
0.999705
0.999469
0.999893
1.00016
0.99981
0.999705
1.00009
1.00008
0.999647
0.999822
1.00017
1
1
1
1.00008
0.999711
1.00014
1.00021
0.999737
0.999912
0.998533
0.999299
1
0.999513
0.999088
1.00005
0.999974
1
0.999929
1.00006
0.999869
0.999877
0.999943
0.999852
1.00001
0.99999
1
1
1
0.999975
0.999508
1.00031
1.0005
0.999532
0.998918
0.999569
0.999607
1
0.999691
0.999597
0.999408
0.999618
0.999724
0.999719
0.999977
1.00013
0.999767
0.999757
1.00023
0.999954
0.999539
1.00022
1.00041
0.999564
1.00003
1.00065
0.999726
0.999625
1.00061
0.998852
1.00032
0.999286
0.998095
0.99952
1.00028
0.999095
0.999134
1.00021
0.999962
0.999598
0.999871
1.00011
0.999997
0.999912
0.999829
0.999948
1.00024
1.00005
0.999612
1.00022
1.00052
0.999759
0.999585
1.00051
1.00002
0.998517
0.998858
1.00004
0.99909
0.998839
0.999781
1
0.999664
0.999659
1
0.999859
1.00002
1.00007
0.999662
1.00001
1.00044
0.9996
0.999666
1.00081
1
0.999155
1.00065
1.00069
0.999025
0.999417
0.998117
0.999263
1.00028
0.998962
0.998304
0.999586
1.00015
0.998708
1
1.00025
1.00007
0.999729
0.999915
1.00012
1.00005
0.999898
0.999836
1.0001
1.00026
0.999922
0.999768
1.0002
1.00045
0.999815
0.998103
1.00066
0.999571
0.997673
0.999572
1.00039
0.998435
0.998823
0.999818
0.999978
0.999684
0.999989
0.999993
0.999869
1.0002
0.999883
0.999514
1.00055
1.00037
0.998947
1.00024
1.00132
0.999088
0.999069
1.00158
0.999356
0.999895
0.998913
0.998554
0.999434
0.999706
0.998857
0.998814
0.999886
1.00003
0.999561
0.999815
1.00027
0.999961
0.999681
1.00003
1.00017
0.999958
0.99981
1.00011
1.00005
1.00001
1.00028
0.999834
0.99972
1.00053
0.996896
0.99878
1.00134
0.998468
0.997412
1.00052
1
0.999412
0.999336
1.00021
1
0.999754
1.00009
0.999869
0.999978
1.00033
0.999378
0.999642
1.00145
0.999647
0.998345
1.00139
1.00141
0.997922
0.99819
0.999067
0.999586
0.998892
0.999013
0.99914
0.998885
1
0.999702
0.999833
1.00007
1
0.999634
1.00004
1.00031
0.999668
0.999675
1.00027
1.00018
0.999464
1.00029
1.00066
0.999157
0.999983
1.00148
0.997586
1.00212
0.999298
0.996211
0.999959
1.00124
0.997229
1
1.00048
1.00014
0.999104
1.00012
1.00044
0.999609
0.999798
1.00022
0.999703
1.00012
1
0.998129
1.00054
1.00227
0.998463
0.998141
1.00259
1.00091
0.997514
0.998098
1.00057
0.998739
0.997914
0.999924
1
0.99978
0.999972
0.999841
0.99992
1.00014
0.999888
0.999553
1.00022
1.00017
0.999565
1
1.00141
0.999271
0.998409
1.00211
1.00104
0.996938
1
0.995193
0.99886
1.00199
0.99812
0.996942
1.00059
1
0.999144
0.999479
1.0008
0.999653
0.999262
1.00064
1.00029
0.999034
1
1
1
1.00157
0.999701
0.997654
1.0017
1.00236
0.997404
0.995089
1.00221
1.00004
0.995165
0.999357
1.00117
0.997923
0.99853
1.00055
1.00002
0.999848
0.999918
0.999901
0.99966
1.00043
1.00008
1
1
1
1
1
1
1
0.998717
1.00668
0.999022
1.00229
0.997652
0.995696
0.999632
1.00055
0.99799
0.999125
1.00074
0.999796
0.998932
1.00029
1.00093
0.99891
0.999338
1.00145
1
1
1
1
1.0049
1.01074
1.00159
1.00145
1.00791
1.00237
0.989846
0.996723
1.00468
1
0.99645
1.00062
1.00054
0.998459
1.00022
1
0.999841
0.999849
1.00092
0.999083
0.998728
1.0023
0.997718
0.999187
1.00982
1.00584
0.995204
1.0058
1.0146
0.998511
0.993634
0.995897
1.00024
0.999229
0.995749
0.998
0.999675
0.999065
1.00007
1.00211
1.00124
1.00692
1
1.00081
1.00121
0.998344
1
0.999507
1.0034
1.00618
1.00168
1.00081
1.00792
1.00705
1.00391
0.993923
1.00951
0.998652
0.991931
0.999695
1.00068
0.997069
0.998466
1.00131
1.00127
1.00308
1.0083
1.00219
0.99496
0.999808
1.00311
1.00093
1.0064
1.00569
0.995296
1.0026
1.01484
1.00048
0.992921
1.02411

VECTORS velocity double
-3.96155e-07 4.49006e-06 0
-0.000143719 8.35827e-05 0
-0.000265314 5.89095e-06 0
-0.000262314 -1.86248e-05 0
-0.000251118 2.27254e-05 0
-0.000444547 9.81054e-05 0
-0.000554975 -2.01381e-05 0
-0.000497173 -2.69395e-05 0
-0.000504017 4.32842e-05 0
-0.000607895 1.30817e-05 0
-0.000551438 -4.81415e-05 0
-0.000472505 -8.83487e-06 0
-0.000437511 -6.01797e-06 0
-0.00043264 -1.23247e-05 0
-0.000401306 2.37191e-06 0
-0.000388687 -9.42048e-06 0
-0.000348391 -7.58412e-06 0
-0.000378576 2.60556e-05 0
-0.000424501 3.72666e-05 0
-0.000360385 -6.00421e-05 0
-0.000223848 1.10351e-05 0
-0.000243981 4.93633e-05 0
-0.000206485 2.76004e-06 0
-9.4394e-05 -2.48582e-05 0
2.17238e-06 3.36854e-05 0
-8.81004e-05 0.000135628 0
-0.000403866 0.000355304 0
-0.000616704 9.15927e-05 0
-0.000780533 4.93691e-05 0
-0.00113686 0.000279601 0
-0.0013952 0.000249941 0
-0.00134862 -1.11201e-05 0
-0.0015074 6.67496e-05 0
-0.00175253 0.000149505 0
-0.00168253 -6.24864e-05 0
-0.00143743 -0.000160558 0
-0.00146161 -1.30752e-05 0
-0.00140709 -0.00010484 0
-0.0011084 -0.000147955 0
-0.00099791 2.95626e-05 0
-0.00120221 2.98278e-05 0
-0.00118949 -8.50916e-05 0
-0.00101694 -6.34277e-08 0
-0.00102164 5.78408e-05 0
-0.00111468 -0.000193728 0
-0.000871293 -0.000235977 0
-0.000526261 -0.000118014 0
-0.000386462 -0.000131043 0
-0.000295842 -0.000275965 0
-7.37172e-05 -0.000134516 0
-0.000124599 0.000446588 0
-0.000325908 0.000535498 0
-0.000727865 0.000518417 0
-0.0014355 0.000474195 0
-0.00170642 0.000513246 0
-0.00168867 0.000290487 0
-0.00200275 0.000272326 0
-0.00247939 0.000313904 0
-0.00242887 7.90647e-05 0
-0.00231747 -0.000142305 0
-0.00236385 -0.000240114 0
-0.00211409 -0.000239156 0
-0.00175063 -0.000294124 0
-0.00171759 -0.000265974 0
-0.00160868 -4.51581e-05 0
-0.00138496 6.10604e-05 0
-0.00145814 -1.01119e-05 0
-0.00165192 -4.85376e-05 0
-0.0014269 -6.41276e-05 0
-0.00123632 -0.000143752 0
-0.00125816 -0.000425033 0
-0.000972405 -0.000498258 0
-0.000431025 -0.000274048 0
-0.000214471 -0.000282818 0
-8.25104e-05 -0.000292317 0
6.13206e-05 0.000554981 0
-0.000452741 0.00104707 0
-0.00141867 0.00125932 0
-0.00184649 0.000865255 0
-0.00168002 0.000466143 0
-0.00190808 0.000576936 0
-0.00248965 0.000746763 0
-0.00281962 0.000561664 0
-0.00285826 2.71952e-05 0
-0.00295895 -0.000164493 0
-0.00289397 -0.000381314 0
-0.00243426 -0.000636393 0
-0.00200459 -0.000525652 0
-0.00190021 -0.00037062 0
-0.00170349 -0.000252479 0
-0.0014452 -4.43043e-05 0
-0.00149356 0.000147284 0
-0.0017747 -1.48006e-05 0
-0.00170512 -0.000298929 0
-0.00132648 -0.000395939 0
-0.00112969 -0.000544338 0
-0.00110147 -0.000890691 0
-0.000683007 -0.000889619 0
-0.000150056 -0.000625217 0
6.15279e-05 -0.000418723 0
-0.00015965 0.000698218 0
-0.00117546 0.00236915 0
-0.00177144 0.00158656 0
-0.0013281 0.000643003 0
-0.00128665 0.000561276 0
-0.00203386 0.00129561 0
-0.00255406 0.00108955 0
-0.00284018 0.000800954 0
-0.00333614 0.000336967 0
-0.00337444 -0.000347738 0
-0.00285319 -0.000791944 0
-0.0025829 -0.00094945 0
-0.00231403 -0.00090293 0
-0.00176318 -0.000694831 0
-0.0014562 -0.000392934 0
-0.00150231 -0.000122666 0
-0.00126253 0.000136708 0
-0.000988107 9.9696e-05 0
-0.00124863 -0.000195184 0
-0.00147988 -0.00074798 0
-0.00115277 -0.000660466 0
-0.000898388 -0.000853621 0
-0.000774257 -0.00123576 0
-0.000432536 -0.0011299 0
-4.02135e-05 -0.000284006 0
-0.000390395 0.00151684 0
-0.000969486 0.00298967 0
-0.00101071 0.00147181 0
-0.000770118 0.00018374 0
-0.000682088 0.000940273 0
-0.00112328 0.00199583 0
-0.00207842 0.00191997 0
-0.00325584 0.00133756 0
-0.00372671 0.000495042 0
-0.00331556 -0.000674213 0
-0.00270543 -0.00123574 0
-0.00245485 -0.00124898 0
-0.00217544 -0.00131035 0
-0.00170157 -0.00108757 0
-0.00119307 -0.000722157 0
-0.000815355 -0.000375022 0
-0.000579212 -6.47229e-05 0
-0.000464757 4.2091e-05 0
-0.000441996 -6.15322e-05 0
-0.000751797 -0.000504261 0
-0.00101527 -0.000901929 0
-0.000733001 -0.00137748 0
-0.000433762 -0.0013518 0
-0.000529824 -0.00139925 0
-0.000249464 -0.000815962 0
-0.000106863 0.00226635 0
-0.000174719 0.00261998 0
-4.96064e-05 0.00154248 0
0 0 0
-0.000188845 0.00134444 0
-0.000869129 0.00259142 0
-0.00210169 0.00342892 0
-0.00305978 0.00214364 0
-0.00285246 0.000141216 0
-0.00267211 -0.00102306 0
-0.00272492 -0.0015671 0
-0.00226616 -0.0016903 0
-0.00171455 -0.00161664 0
-0.0016109 -0.00146095 0
-0.00128251 -0.00127329 0
-0.00066013 -0.000752677 0
-0.000153691 -0.000383222 0
0 0 0
0 0 0
0 0 0
-0.000478482 -0.0005782 0
-0.000784012 -0.0017224 0
-0.000294059 -0.00145889 0
-5.48946e-05 -0.00110751 0
-2.23666e-05 -0.00111457 0
0.000407159 0.00183176 0
0.000223974 0.00313009 0
-0.000148943 0.00146947 0
0 0 0
-0.000102293 0.00168817 0
-0.00103984 0.00387066 0
-0.00180975 0.00402852 0
-0.00172291 0.00236448 0
-0.00147885 -5.89173e-05 0
-0.00146888 -0.0011115 0
-0.00165374 -0.00155805 0
-0.00181634 -0.00186214 0
-0.00191402 -0.0017666 0
-0.00178373 -0.00186799 0
-0.00125052 -0.0016945 0
-0.000624668 -0.00131665 0
-0.000120461 -0.000830841 0
0 0 0
0 0 0
0 0 0
-4.52178e-05 -0.000397848 0
-0.000429629 -0.00129495 0
-0.000481345 -0.00224482 0
0.000123489 -0.00174145 0
0.000279266 -0.000867105 0
-0.000224349 0.00153383 0
-0.000346666 0.00376938 0
-7.89407e-05 0.00112526 0
0 0 0
-0.00011393 0.00200952 0
-0.000676309 0.0051476 0
-0.000752987 0.00363244 0
-0.000231215 0.0017248 0
0 0 0
-0.000444372 -0.000635235 0
-0.00123654 -0.00105408 0
-0.00198523 -0.00151698 0
-0.00215997 -0.00186844 0
-0.00157491 -0.00227211 0
-0.00124131 -0.00197889 0
-0.00137557 -0.00192738 0
-0.000656819 -0.00136787 0
0 0 0
0 0 0
0 0 0
8.48605e-05 -0.00022633 0
0.000177519 -0.000897435 0
-8.46587e-05 -0.00215149 0
-0.00045779 -0.00204977 0
-0.000208794 -0.00060801 0
-0.00028162 0.00229864 0
-5.65632e-05 0.00293606 0
0.000254121 0.00119797 0
0 0 0
-0.000829936 0.00286651 0
-0.00176376 0.00491562 0
-0.00149732 0.00369348 0
-0.00108701 0.00129613 0
-0.000987303 0.000101135 0
-0.00100541 -9.52338e-05 0
-0.00149513 -5.21663e-05 0
-0.00212972 -0.00117525 0
-0.00212717 -0.00209432 0
-0.00226006 -0.00234615 0
-0.00230774 -0.00223642 0
-0.00198235 -0.00227002 0
-0.00200863 -0.00150235 0
-0.00186656 -0.000797731 0
-0.00098935 -0.000271051 0
-0.000770504 -8.66691e-05 0
-0.000577259 -0.000368461 0
9.3304e-05 -0.0018799 0
0.000356756 -0.00142298 0
-0.000352784 -0.00150588 0
-0.000338663 -0.00158809 0
0.000306118 0.00227532 0
0.000632277 0.00230938 0
0.000300786 0.00175199 0
-0.00133102 0.00130524 0
-0.00213895 0.00378782 0
-0.00219543 0.00487318 0
-0.00262662 0.00388315 0
-0.00215843 0.000648464 0
-0.00114066 -0.000386174 0
-0.00151627 0.000378288 0
-0.00221871 0.000293626 0
-0.00168034 -0.0012944 0
-0.00155192 -0.00185775 0
-0.00266866 -0.00182617 0
-0.00327411 -0.00221714 0
-0.00305353 -0.00223913 0
-0.00325143 -0.00114728 0
-0.00374866 -0.00137323 0
-0.0029259 -0.000865926 0
-0.00168813 -0.000681254 0
-0.00106864 -0.000537255 0
-0.00116449 -0.0021836 0
-0.000504043 -0.00162766 0
0.000327713 -0.00124758 0
0.000333058 -0.00150369 0
0.000443779 0.00115731 0
0.000130954 0.00356284 0
-0.000906837 0.00249715 0
-0.001442 0.00221533 0
-0.00260409 0.00456425 0
-0.00369494 0.00561362 0
-0.00182806 0.00209 0
0 0 0
-0.000919686 0.000135555 0
-0.000936255 0.000384608 0
0 0 0
-0.00105988 -0.000723684 0
-0.0025589 -0.000957784 0
-0.00277237 -0.00144896 0
-0.00286548 -0.00172159 0
-0.00404417 -0.00173207 0
-0.00425512 -0.00156991 0
-0.00363624 -0.001169 0
-0.00386108 -0.00135885 0
-0.00367729 -0.00224687 0
-0.0019456 -0.00147435 0
-0.00149831 -0.00172534 0
-0.0013595 -0.00299712 0
-0.00033718 -0.00274015 0
0.000330085 -0.000703422 0
-0.000642375 0.00141085 0
-0.000806327 0.00388206 0
-0.000641496 0.00340009 0
-0.00249524 0.00349236 0
-0.00374873 0.00511977 0
-0.00209523 0.00436671 0
-0.000752546 0.000386111 0
-0.00184988 0.000365537 0
-0.00131421 -0.000189095 0
0 0 0
-0.00047982 0.000466881 0
-0.00164533 0.000589548 0
-0.00239161 -0.000229618 0
-0.00259745 -0.00125343 0
-0.00313888 -0.000955539 0
-0.00431754 -0.000955064 0
-0.00451443 -0.00175501 0
-0.00400005 -0.00126463 0
-0.00380035 -0.00145444 0
-0.00418131 -0.00248448 0
-0.00322961 -0.00273753 0
-0.00160421 -0.00258972 0
-0.00107707 -0.00259308 0
-0.00193979 -0.00311159 0
-0.000913271 -0.00148992 0
-0.00025301 0.00278901 0
-0.00035078 0.00252705 0
-0.000892052 0.00454109 0
-0.00287974 0.00622343 0
-0.00340801 0.00453433 0
-0.00312739 0.00278873 0
-0.00473577 0.00211425 0
-0.0048574 -3.19549e-06 0
-0.00322639 -0.00162821 0
-0.00302447 -0.000425395 0
-0.0031452 0.00132358 0
-0.0027237 0.000993031 0
-0.00200113 -0.000201808 0
-0.00288919 -0.000391046 0
-0.00368544 -0.000410601 0
-0.00314948 -0.000903879 0
-0.00362413 -0.000845336 0
-0.00520027 -0.00174222 0
-0.0041712 -0.00235392 0
-0.00338038 -0.00190292 0
-0.00401225 -0.0035028 0
-0.00349316 -0.00514279 0
-0.00111546 -0.00257855 0
-0.000604806 -0.00253506 0
-0.000171465 -0.0034345 0
0.000508829 0.00240953 0
-0.000571888 0.00403683 0
-0.00250871 0.00599771 0
-0.00245909 0.00632295 0
-0.00225224 0.00492669 0
-0.00368698 0.00416713 0
-0.00427976 0.00288398 0
-0.00470387 -0.00041001 0
-0.00480501 -0.00221727 0
-0.00416385 -0.000990192 0
-0.00364696 0.000963192 0
-0.00290646 1.73675e-05 0
-0.00233743 -0.000503244 0
-0.00243216 0.000158984 0
-0.00248757 -0.000221239 0
-0.00274809 -0.000762274 0
-0.00347183 0.000279432 0
-0.00456448 -0.00146058 0
-0.00446293 -0.00240957 0
-0.00363083 -0.00307706 0
-0.00273713 -0.00304429 0
-0.00393933 -0.00499558 0
-0.00284126 -0.00520755 0
-0.00028759 -0.00413718 0
0.000902614 -0.00251299 0
-4.07017e-05 0.00168703 0
-0.00138905 0.00714362 0
-0.00221415 0.00639762 0
-0.00164737 0.00476854 0
-0.00219406 0.00638355 0
-0.00335304 0.00588021 0
-0.00177448 0.000892546 0
0 0 0
-0.00173545 -0.00122957 0
-0.00284886 -0.00113579 0
-0.00132068 -0.000325161 0
-0.000936175 -0.000348097 0
-0.00157991 4.06986e-05 0
-0.00121804 -0.000291626 0
-0.000999746 -1.43045e-05 0
-0.00281588 0.000575927 0
-0.00270847 1.07338e-05 0
-0.0014924 -0.00109697 0
-0.00355534 -0.000795389 0
-0.00594991 -0.00503458 0
-0.00360709 -0.00354502 0
-0.00284507 -0.00375841 0
-0.00331843 -0.00682218 0
-0.00298942 -0.00719202 0
-0.000431222 -0.00219117 0
-0.00158191 0.00405941 0
-0.00171504 0.00589299 0
-0.000100003 0.00614133 0
-0.00192453 0.00686803 0
-0.00264458 0.00586402 0
-0.000217812 0.00364223 0
0.000648457 0.000481666 0
0 0 0
0.000273259 -0.000356931 0
7.07809e-05 -0.00100716 0
-0.000174637 -0.00120475 0
0 0 0
-0.000151334 0.000199518 0
-0.000785932 -0.000103288 0
-0.00120556 0.000459604 0
-0.00118467 0.00104467 0
-0.000735488 -0.00072491 0
-0.00114505 -8.24318e-05 0
-0.00144955 0.000312199 0
-0.00335332 -0.00278274 0
-0.00475866 -0.00451297 0
-0.00368622 -0.00653182 0
-0.00178344 -0.00481719 0
-0.00395325 -0.00666889 0
-0.00201975 -0.00612003 0
0.000732895 0.00541425 0
0.000591855 0.00436684 0
-0.00181744 0.00756886 0
-0.00404789 0.00911847 0
-0.00297458 0.0042025 0
-0.00105674 0.00127767 0
-0.000236575 0.00125874 0
0 0 0
-0.00022333 -0.000406303 0
-0.000451503 -0.000906343 0
-0.000998406 -0.000570246 0
-0.000731189 -0.000284179 0
0.000268864 -0.000228324 0
-0.000280818 0.00102156 0
-0.000524988 0.000827663 0
0.000450468 -0.000155453 0
0.000204998 -0.000425407 0
-0.000689583 0.000299748 0
0 0 0
-0.000330079 0.00031708 0
-0.00339654 -0.00287973 0
-0.00666955 -0.00876135 0
-0.00342831 -0.00573123 0
-0.000311844 -0.00706506 0
0.00120297 -0.00802776 0
0.000874713 0.00293463 0
-0.00224895 0.00999638 0
-0.00594305 0.00988128 0
-0.00382873 0.00605053 0
-0.00211733 0.00382767 0
-0.00263453 0.00129635 0
-0.00128269 -0.00110414 0
0 0 0
-0.00050215 0.000553828 0
-0.000916597 -0.00101924 0
-0.0010205 -0.000394726 0
-0.0016542 -0.000689038 0
-0.00182145 -0.000368449 0
-0.000394335 -3.18755e-06 0
0.000872334 0.000353583 0
0.000312949 0.000303386 0
7.0168e-05 0.000107788 0
-1.00965e-05 -3.06303e-05 0
0 0 0
-0.000113415 0.00062268 0
3.6144e-05 -0.000157814 0
-0.00335612 -0.00413506 0
-0.00606196 -0.00969712 0
-0.0035143 -0.0132035 0
0.000893131 -0.00534753 0
-0.00196779 0.00448336 0
-0.0047155 0.0138306 0
-0.00386438 0.00924208 0
-0.00502008 0.00578492 0
-0.00919466 0.00472562 0
-0.00910368 0.000174385 0
-0.00360406 -0.00499408 0
0 0 0
-0.00151771 0.00183384 0
-0.00307543 -3.77155e-05 0
-0.0018105 -0.00142112 0
-0.00078589 -0.000110595 0
-0.00119357 -0.000140757 0
-0.00118857 -0.00139068 0
-0.000374232 -0.00095179 0
-1.29096e-05 0.00146179 0
0 0 0
0 0 0
0 0 0
-0.00025808 6.27075e-05 0
0.000886935 0.000199862 0
0.00022164 -0.000241458 0
-0.00591018 -0.00591311 0
-0.0102701 -0.0166531 0
-0.00347331 -0.00953544 0
-0.00253393 0.0111576 0
-0.00234096 0.0089269 0
-0.00140722 0.0102977 0
-0.00792849 0.0137333 0
-0.00839516 0.00315308 0
-0.00524761 -0.00240848 0
-0.00828761 -0.00618745 0
-0.00865601 -0.0024687 0
-0.00245976 -0.000623955 0
-0.00110159 0.00183069 0
-0.00373583 -0.00230414 0
-0.00321728 -0.000805295 0
-0.000701049 -0.00181032 0
-0.000259331 0.000117568 0
-0.00166631 -0.00113115 0
-0.00104545 7.607e-05 0
0 0 0
0 0 0
0 0 0
0 0 0
0 0 0
0 0 0
0 0 0
-0.00438912 -0.0109784 0
-0.00405681 -0.0210469 0
0.00365583 0.00956309 0
-0.00100315 0.0132718 0
-0.0107362 0.0149962 0
-0.0104038 0.0138305 0
-0.00508233 0.000854634 0
-0.00367917 -0.00163393 0
-0.00782502 -0.00206803 0
-0.0102304 -0.00518046 0
-0.00709109 -0.00414197 0
-0.00397615 0.00124086 0
-0.00251475 -0.00125003 0
-0.00194769 -0.00219237 0
-0.00025546 -0.00440908 0
0.00188887 0.000149676 0
0.0012814 0.00089721 0
-7.33906e-05 -0.00134383 0
0 0 0
0 0 0
0 0 0
0 0 0
-0.00467158 0.00336968 0
-0.0106263 0.000227895 0
-0.00844315 -0.00179504 0
0.00354579 -0.0164979 0
0.00693366 -0.0173182 0
-0.00266824 0.00770242 0
-0.0133606 0.0293914 0
-0.0102972 0.0120952 0
0.000166978 0.00541502 0
0 0 0
-0.00169478 0.000397215 0
-0.00122122 0.000344713 0
-0.00272945 -0.0040577 0
-0.00557767 -0.00549821 0
-0.0026907 -0.00507493 0
0 0 0
0.000294691 -0.00458107 0
-0.00167658 -0.00262553 0
-0.00207336 -0.00395265 0
0.00197454 0.00101111 0
-0.000381793 0.00259739 0
-0.00433945 -6.62342e-05 0
-0.00185493 -0.00207899 0
-0.00024901 0.00124132 0
-0.0068796 0.00552004 0
-0.00822414 0.00600078 0
-0.00410195 0.00186507 0
-0.00580894 -0.00460159 0
-0.00717217 -0.0314012 0
-0.00209705 -0.010205 0
-0.00629439 0.021125 0
-0.00710321 0.023051 0
0.00593463 0.00237445 0
0.0161449 -1.13597e-05 0
0.0156538 0.00401808 0
0.0120436 -0.000613152 0
0.0157564 -0.00098576 0
0.0167889 -0.00102467 0
0.0102424 -0.00161867 0
0.00571194 -0.0065959 0
0.0108356 -0.0038204 0
0.00797209 0.000756809 0
0 0 0
0.00240998 -0.00670353 0
0.00473277 -0.000200116 0
0.00214834 0.00722395 0
0 0 0
0.0032331 -0.00568098 0
0.0055098 0.00278247 0
0.00338476 0.00922932 0
0.00636797 0.000475308 0
0.0118361 0.00105271 0
0.00733705 0.000413752 0
-0.00619382 -0.0222683 0
-0.00594625 -0.0223378 0
0.0234944 0.0152879 0
0.0515351 0.00363335 0
0.054152 -0.00191438 0
0.0489087 -0.00170865 0
0.0523648 0.00384384 0
0.0560074 -0.00135047 0
0.0525588 -0.00109521 0
0.0511696 7.76545e-05 0
0.0532406 0.00117535 0
0.0520575 -0.00199858 0
0.0435238 -0.00378149 0
0.0438397 0.00384756 0
0.049526 -0.000230369 0
0.0440566 -0.00358894 0
0.0385335 -0.000192048 0
0.044013 0.00367925 0
0.0497643 -0.000235856 0
0.0438434 -0.00384959 0
0.0402586 0.00153214 0
0.0487082 0.00406596 0
0.052168 -0.00199968 0
0.0480089 -0.000536426 0
0.0525111 0.00356873 0
0.0524127 -0.00370739 0
0.0243037 -0.0158235 0


