# vtk DataFile Version 4.0
SiwiRVisFile
ASCII
DATASET STRUCTURED_POINTS
DIMENSIONS 5 5 1
ORIGIN 0 0 0
POINT_DATA 25


SCALARS flags double 125
LOOKUP_TABLE default25
1
1
1
1
1
1
1
1
1
1
1
1
1
1
1
1
1
1
1
1
1
1
1
1
1

SCALARS density double 1
LOOKUP_TABLE default
2.43819e+08
4.15284e+07
-4.53938e+06
-431703
1.47597e+06
6.64691e+08
2.27232e+08
-8.9592e+06
3.88709e+06
99520.3
9.02085e+08
3.22601e+08
-6.23744e+06
6.37369e+06
180260
4.6169e+08
1.6669e+08
-3.82607e+06
1.44674e+06
231982
-212297
-502542
-148450
82340.5
56.6349

VECTORS velocity double
0.0987116 -0.323874 0
-0.650062 0.124456 0
-0.790422 0.163481 0
-4.19073 2.32161 0
-1.35707 -0.111019 0
0.0182171 -0.151621 0
-0.301751 0.647454 0
0.236419 1.02036 0
0.109603 0.502209 0
-1.85412 0.36377 0
0.279122 -0.14688 0
0.0510824 0.597562 0
0.283534 1.06953 0
0.0644847 0.663007 0
-0.339854 0.491578 0
0.614732 -0.143466 0
0.422744 0.614781 0
-0.228541 1.1074 0
-0.447688 0.0445037 0
0.706339 1.77655 0
0.124428 0.191343 0
0.305279 0.155028 0
-0.198927 1.74434 0
0.0219968 1.03206 0
-2.37681 2.34351 0


