# vtk DataFile Version 4.0
SiwiRVisFile
ASCII
DATASET STRUCTURED_POINTS
DIMENSIONS 25 25 1
ORIGIN 0 0 0
SPACING 1 1 1
POINT_DATA 625

SCALARS flags double 1
LOOKUP_TABLE default
1
1
1
1
1
1
1
1
1
1
1
1
1
1
1
1
1
1
1
1
1
1
1
1
1
1
1
1
1
1
1
1
1
1
1
1
1
1
1
1
1
1
1
1
1
1
1
1
1
1
1
1
1
1
1
1
1
1
1
1
1
1
1
1
1
1
1
1
1
1
1
1
1
1
1
1
1
1
1
1
1
1
1
1
1
1
1
1
1
1
1
1
1
1
1
1
1
1
1
1
1
1
1
1
1
1
1
1
1
1
1
1
1
1
1
1
1
1
1
1
1
1
1
1
1
1
1
1
1
1
1
1
1
1
1
1
1
1
1
1
1
1
1
1
1
1
1
1
1
1
1
1
1
1
1
1
1
1
1
1
1
1
1
1
1
1
1
1
1
1
1
1
1
1
1
1
1
1
1
1
1
1
1
1
1
1
1
1
1
1
1
1
1
1
1
1
1
1
1
1
1
1
1
1
1
1
1
1
1
1
1
1
1
1
1
1
1
1
1
1
1
1
1
1
1
1
1
1
1
1
1
1
1
1
1
1
1
1
1
1
1
1
1
1
1
1
1
1
1
1
1
1
1
1
1
1
1
1
1
1
1
1
1
1
1
1
1
1
1
1
1
1
1
1
1
1
1
1
1
1
1
1
1
1
1
1
1
1
1
1
1
1
1
1
1
1
1
1
1
1
1
1
1
1
1
1
1
1
1
1
1
1
1
1
1
1
1
1
1
1
1
1
1
1
1
1
1
1
1
1
1
1
1
1
1
1
1
1
1
1
1
1
1
1
1
1
1
1
1
1
1
1
1
1
1
1
1
1
1
1
1
1
1
1
1
1
1
1
1
1
1
1
1
1
1
1
1
1
1
1
1
1
1
1
1
1
1
1
1
1
1
1
1
1
1
1
1
1
1
1
1
1
1
1
1
1
1
1
1
1
1
1
1
1
1
1
1
1
1
1
1
1
1
1
1
1
1
1
1
1
1
1
1
1
1
1
1
1
1
1
1
1
1
1
1
1
1
1
1
1
1
1
1
1
1
1
1
1
1
1
1
1
1
1
1
1
1
1
1
1
1
1
1
1
1
1
1
1
1
1
1
1
1
1
1
1
1
1
1
1
1
1
1
1
1
1
1
1
1
1
1
1
1
1
1
1
1
1
1
1
1
1
1
1
1
1
1
1
1
1
1
1
1
1
1
1
1
1
1
1
1
1
1
1
1
1
1
1
1
1
1
1
1
1
1
1
1
1
1
1
1
1
1
1
1
1
1
1
1
1
1
1
1
1
1
1
1
1
1
1
1
1
1
1
1
1
1
1
1
1
1
1
1
1
1
1
1
1
1
1
1
1
1
1
1
1
1
1
1
1
1
1
1
1
1
1
1
1
1
1
1
1
1
1
1
1
1
1
1
1
1
1
1
1
1

SCALARS density double 1
LOOKUP_TABLE default
0.999759
0.999788
0.999903
0.999782
0.999709
0.999938
0.999944
0.999668
0.999815
1.00012
0.999827
0.999651
1.00008
1.00008
0.999643
0.999871
1.00023
0.999834
0.999694
1.00019
1.0001
0.999664
1
1.00028
0.999805
1.00007
0.999529
0.999702
1.00012
0.999811
0.999597
0.999928
1.00002
0.999744
0.99979
0.999988
0.999926
0.999838
0.999883
0.999937
0.999969
0.99992
0.999844
0.99997
1.00008
0.999903
0.999824
1.00009
1.0001
0.999784
0.999744
0.999939
0.999791
0.999749
0.999921
0.999832
0.999719
0.999963
0.999951
0.999672
0.999904
1.00011
0.999745
0.999754
1.00017
0.999936
0.999637
1.00008
1.00018
0.999656
0.999871
1.00034
0.999872
0.999624
1.00024
0.99961
1.00013
0.999919
0.999498
0.999822
1.00011
0.999785
0.999627
0.999977
1.00003
0.999748
0.999786
1.00002
0.999978
0.999791
0.999865
1.00004
0.999973
0.999837
0.999921
1.00005
1
0.999889
0.999938
1.00005
1.00004
0.999487
0.999737
1.00003
0.999784
0.999715
0.999993
0.999828
0.999713
1.00001
0.999917
0.999711
1.00001
1.00003
0.999701
0.999916
1.00015
0.999747
0.99975
1.00031
0.999995
0.999544
1.00015
1.00036
0.999605
0.999804
0.9994
0.999738
1.00013
0.999858
0.999568
0.99987
1.0001
0.99974
0.999634
1.00002
1.00007
0.999746
0.999787
1.0001
0.999948
0.999705
0.999949
1.0001
0.999874
0.99988
1.00009
0.999985
0.999914
1.00004
0.999235
1.00021
0.999756
1
0.999904
1.00009
0.999549
0.999675
1.00005
0.999829
0.999809
1.00002
0.99986
0.999822
1.00007
0.999892
0.999707
1
1
1
0.999986
1.00046
0.99976
0.999567
1.00045
0.999682
0.999731
0.999437
1
0.999758
0.999938
0.99971
0.999474
0.999897
1.00016
0.999812
0.999708
1.0001
1.00009
0.999648
0.999824
1.00017
1
1
1
1.00008
0.999708
1.00014
1.00021
0.999735
0.999918
0.99854
0.999305
1
0.999518
0.999093
1.00005
0.999978
1
0.999932
1.00006
0.999872
0.999878
0.999944
0.999853
1.00001
0.999991
1
1
1
0.999972
0.999505
1.0003
1.0005
0.999529
0.998924
0.999576
0.999613
1
0.999696
0.999602
0.999412
0.999623
0.999728
0.999721
0.99998
1.00014
0.999768
0.999758
1.00023
0.999953
0.999538
1.00022
1.0004
0.99956
1.00002
1.00065
0.999721
0.999622
1.0006
0.998858
1.00032
0.999292
0.998101
0.999525
1.00028
0.9991
0.999138
1.00021
0.999965
0.999599
0.999872
1.00011
0.999997
0.999911
0.999828
0.999947
1.00024
1.00004
0.999609
1.00022
1.00052
0.999755
0.999581
1.0005
1.00002
0.998522
0.998864
1.00004
0.999095
0.998844
0.999785
1
0.999665
0.999663
1
0.999859
1.00002
1.00007
0.999661
1.00001
1.00044
0.999596
0.999663
1.0008
0.999996
0.99915
1.00065
1.00069
0.99902
0.999422
0.998122
0.999268
1.00028
0.998966
0.998308
0.99959
1.00015
0.998711
1
1.00025
1.00007
0.999728
0.999914
1.00011
1.00004
0.999895
0.999832
1.0001
1.00026
0.999918
0.999763
1.00019
1.00045
0.999809
0.998107
1.00067
0.999576
0.997677
0.999576
1.00039
0.998438
0.998826
0.999821
0.999978
0.999684
0.999988
0.999991
0.999868
1.0002
0.99988
0.999511
1.00055
1.00037
0.998941
1.00024
1.00131
0.999081
0.999063
1.00157
0.99936
0.999899
0.998917
0.998558
0.999438
0.999709
0.99886
0.998816
0.999887
1.00003
0.99956
0.999814
1.00027
0.999958
0.999678
1.00003
1.00017
0.999953
0.999805
1.00011
1.00004
1.00001
1.00028
0.999827
0.999712
1.00053
0.996899
0.998784
1.00135
0.998471
0.997415
1.00052
1
0.999412
0.999336
1.0002
0.999998
0.999752
1.00009
0.999866
0.999975
1.00033
0.999373
0.999638
1.00145
0.999638
0.998338
1.00138
1.0014
0.997913
0.998193
0.99907
0.999589
0.998895
0.999016
0.999143
0.998888
1
0.999701
0.999831
1.00007
1
0.99963
1.00004
1.00031
0.999664
0.999671
1.00026
1.00017
0.999457
1.00028
1.00066
0.999147
0.999976
1.00148
0.997589
1.00212
0.9993
0.996213
0.999961
1.00124
0.997231
1
1.00048
1.00014
0.999103
1.00012
1.00044
0.999605
0.999794
1.00021
0.999699
1.00011
1
0.998121
1.00053
1.00226
0.998452
0.998133
1.00258
1.00092
0.997516
0.998099
1.00058
0.99874
0.997915
0.999926
1
0.999779
0.999971
0.999838
0.999917
1.00014
0.999885
0.999549
1.00022
1.00016
0.99956
1
1.00141
0.999259
0.998401
1.0021
1.00103
0.996926
1.00001
0.995194
0.998861
1.00199
0.998121
0.996943
1.00059
1
0.999143
0.999477
1.00079
0.99965
0.999259
1.00064
1.00029
0.99903
1
1
1
1.00156
0.999691
0.997644
1.00169
1.00235
0.997392
0.99509
1.00221
1.00004
0.995165
0.999358
1.00117
0.997922
0.998529
1.00055
1.00002
0.999845
0.999915
0.999896
0.999655
1.00043
1.00007
1
1
1
1
1
1
1
0.998708
1.00667
0.999022
1.00229
0.997652
0.995696
0.999632
1.00055
0.997989
0.999124
1.00074
0.999794
0.998929
1.00028
1.00093
0.998905
0.999331
1.00145
1
1
1
1
1.0049
1.01074
1.00158
1.00144
1.00791
1.00237
0.989847
0.996723
1.00468
1
0.996449
1.00062
1.00054
0.998457
1.00021
1
0.999836
0.999845
1.00091
0.999076
0.998722
1.0023
0.997715
0.99918
1.00981
1.00584
0.995199
1.00579
1.0146
0.998508
0.993634
0.995896
1.00024
0.99923
0.995749
0.997999
0.999674
0.999064
1.00007
1.00211
1.00124
1.00692
1
1.00081
1.00121
0.998338
1
0.9995
1.00339
1.00618
1.00167
1.0008
1.00791
1.00705
1.0039
0.993923
1.00951
0.998652
0.991932
0.999694
1.00068
0.997067
0.998465
1.00131
1.00127
1.00308
1.0083
1.00219
0.994953
0.9998
1.0031
1.00092
1.00639
1.00569
0.99529
1.00259
1.01484
1.00048
0.992913
1.0241

VECTORS velocity double
-5.39049e-07 4.32818e-06 0
-0.000143621 8.31029e-05 0
-0.000264779 5.61622e-06 0
-0.000261484 -1.89648e-05 0
-0.000250156 2.25639e-05 0
-0.000443166 9.76288e-05 0
-0.000552973 -2.03867e-05 0
-0.00049499 -2.70659e-05 0
-0.000501821 4.31568e-05 0
-0.000605505 1.28569e-05 0
-0.000549256 -4.80431e-05 0
-0.000470775 -8.99549e-06 0
-0.000435888 -6.35439e-06 0
-0.000431209 -1.26628e-05 0
-0.000400325 1.8797e-06 0
-0.00038784 -1.03676e-05 0
-0.000347558 -8.64944e-06 0
-0.000377789 2.45936e-05 0
-0.000423886 3.55834e-05 0
-0.000360082 -6.22083e-05 0
-0.000223678 8.50063e-06 0
-0.000243592 4.63906e-05 0
-0.000206008 -1.66725e-07 0
-9.38678e-05 -2.8185e-05 0
2.54315e-06 3.06199e-05 0
-8.81638e-05 0.000134983 0
-0.000403467 0.000353671 0
-0.000615486 9.02061e-05 0
-0.000778717 4.81263e-05 0
-0.00113423 0.00027817 0
-0.00139167 0.000248172 0
-0.00134448 -1.26109e-05 0
-0.00150251 6.54944e-05 0
-0.00174724 0.000148545 0
-0.00167756 -6.32315e-05 0
-0.00143306 -0.00016074 0
-0.00145791 -1.33894e-05 0
-0.00140453 -0.000105048 0
-0.00110692 -0.000148079 0
-0.000996862 2.92532e-05 0
-0.00120128 2.92258e-05 0
-0.00118882 -8.54518e-05 0
-0.00101674 -1.75168e-07 0
-0.00102165 5.79171e-05 0
-0.00111468 -0.000193291 0
-0.000871552 -0.000235651 0
-0.000526499 -0.000118043 0
-0.000386249 -0.000130793 0
-0.00029505 -0.000275597 0
-7.31508e-05 -0.000132774 0
-0.000124599 0.000445348 0
-0.000325437 0.00053278 0
-0.000726501 0.000515552 0
-0.0014332 0.000471931 0
-0.00170303 0.000510262 0
-0.0016843 0.000287791 0
-0.0019977 0.000269729 0
-0.00247328 0.000311643 0
-0.00242228 7.79597e-05 0
-0.00231148 -0.00014248 0
-0.00235889 -0.000239782 0
-0.00211044 -0.000238572 0
-0.00174869 -0.000293502 0
-0.00171667 -0.000266453 0
-0.00160827 -4.64741e-05 0
-0.0013855 5.92427e-05 0
-0.00145925 -1.26829e-05 0
-0.00165336 -5.10178e-05 0
-0.00142882 -6.76155e-05 0
-0.00123826 -0.000147547 0
-0.00125981 -0.000429802 0
-0.000973618 -0.000503748 0
-0.00043177 -0.0002802 0
-0.000214413 -0.000288774 0
-8.22506e-05 -0.000296164 0
6.12596e-05 0.000553104 0
-0.00045157 0.00104264 0
-0.00141577 0.00125496 0
-0.00184303 0.000861623 0
-0.00167668 0.00046207 0
-0.00190376 0.000572319 0
-0.00248365 0.00074241 0
-0.00281258 0.00055798 0
-0.00285108 2.54101e-05 0
-0.00295204 -0.000164802 0
-0.00288813 -0.000380209 0
-0.00243004 -0.0006348 0
-0.00200184 -0.000524201 0
-0.00189876 -0.00037029 0
-0.00170337 -0.00025269 0
-0.00144554 -4.53932e-05 0
-0.00149346 0.000145811 0
-0.00177452 -1.57355e-05 0
-0.00170616 -0.000299881 0
-0.00132906 -0.000397616 0
-0.00113272 -0.000547057 0
-0.00110358 -0.000894413 0
-0.000684061 -0.000893955 0
-0.000150272 -0.000629185 0
6.18826e-05 -0.000419174 0
-0.000159306 0.000695279 0
-0.00117305 0.00236185 0
-0.00176729 0.00158117 0
-0.00132424 0.000639181 0
-0.00128371 0.000557238 0
-0.00202998 0.0012888 0
-0.00254831 0.00108364 0
-0.0028334 0.000796433 0
-0.00332894 0.000335017 0
-0.00336724 -0.00034759 0
-0.00284686 -0.000789685 0
-0.00257803 -0.000946701 0
-0.00231059 -0.00090103 0
-0.00176096 -0.00069407 0
-0.0014548 -0.000394061 0
-0.00149976 -0.000126956 0
-0.00125918 0.000132873 0
-0.000985514 9.61849e-05 0
-0.00124774 -0.000197424 0
-0.0014812 -0.000751824 0
-0.00115575 -0.000666825 0
-0.000901024 -0.000862909 0
-0.000775397 -0.00124503 0
-0.000432716 -0.0011388 0
-4.01713e-05 -0.000288907 0
-0.00039006 0.0015122 0
-0.000967457 0.00297962 0
-0.00100648 0.00146467 0
-0.000767005 0.000181926 0
-0.000681107 0.000935507 0
-0.00112101 0.00198683 0
-0.00207414 0.0019116 0
-0.00324976 0.00133126 0
-0.00371969 0.000492006 0
-0.00330903 -0.000673935 0
-0.00269974 -0.00123371 0
-0.00244974 -0.0012453 0
-0.00217147 -0.00130737 0
-0.00169813 -0.00108599 0
-0.00119033 -0.000723059 0
-0.000812486 -0.000379379 0
-0.000575383 -6.85217e-05 0
-0.000461495 4.18365e-05 0
-0.000440641 -6.03003e-05 0
-0.000752477 -0.000503841 0
-0.00101773 -0.000906446 0
-0.000735174 -0.00138704 0
-0.00043502 -0.00136172 0
-0.000530086 -0.00140836 0
-0.000248974 -0.000819596 0
-0.0001067 0.00226046 0
-0.00017278 0.00260774 0
-4.78378e-05 0.00153529 0
0 0 0
-0.000188837 0.00133916 0
-0.000867619 0.00258071 0
-0.00209693 0.00341721 0
-0.00305278 0.00213661 0
-0.00284621 0.00013838 0
-0.00266707 -0.00102193 0
-0.00272021 -0.00156503 0
-0.00226067 -0.00168663 0
-0.00170994 -0.0016134 0
-0.0016073 -0.00145996 0
-0.00127956 -0.00127599 0
-0.000656609 -0.000758906 0
-0.000151935 -0.000389049 0
0 0 0
0 0 0
0 0 0
-0.000479599 -0.000584239 0
-0.000785335 -0.00173383 0
-0.000294298 -0.00147128 0
-5.42757e-05 -0.00111839 0
-2.24871e-05 -0.00111947 0
0.000407416 0.00182472 0
0.00022435 0.00311687 0
-0.00014883 0.00146325 0
0 0 0
-0.000102103 0.00168208 0
-0.00103826 0.00385657 0
-0.00180564 0.00401278 0
-0.00171733 0.00235669 0
-0.0014751 -6.05039e-05 0
-0.00146586 -0.001111 0
-0.00165039 -0.00155652 0
-0.00181143 -0.00185996 0
-0.00190864 -0.00176304 0
-0.00177841 -0.00186516 0
-0.0012468 -0.00169581 0
-0.000621899 -0.0013209 0
-0.000119948 -0.00083293 0
0 0 0
0 0 0
0 0 0
-4.59892e-05 -0.000404011 0
-0.000429094 -0.00130862 0
-0.000480733 -0.0022608 0
0.000124508 -0.00175444 0
0.00027983 -0.00087378 0
-0.000224618 0.00152652 0
-0.000347162 0.0037564 0
-7.91759e-05 0.00111861 0
0 0 0
-0.000114293 0.00200343 0
-0.000674763 0.00513019 0
-0.000748844 0.00361623 0
-0.000228574 0.00171859 0
0 0 0
-0.000442598 -0.000635973 0
-0.00123352 -0.00105413 0
-0.00198069 -0.00151648 0
-0.00215493 -0.00186622 0
-0.00156841 -0.00226995 0
-0.00123669 -0.00198078 0
-0.00137203 -0.0019319 0
-0.000656459 -0.00137037 0
0 0 0
0 0 0
0 0 0
8.6447e-05 -0.000232892 0
0.000181504 -0.000910148 0
-8.34762e-05 -0.00216454 0
-0.000456672 -0.00205993 0
-0.000209577 -0.000611492 0
-0.000282011 0.00229197 0
-5.74992e-05 0.00292255 0
0.000253548 0.00119041 0
0 0 0
-0.000826721 0.00285741 0
-0.00175629 0.00489537 0
-0.00149264 0.00367916 0
-0.00108525 0.00129036 0
-0.000985246 0.000100102 0
-0.00100245 -9.65743e-05 0
-0.00149292 -5.50221e-05 0
-0.00212496 -0.00117527 0
-0.00212242 -0.00209345 0
-0.0022523 -0.00234405 0
-0.00230204 -0.00223515 0
-0.00197683 -0.00227057 0
-0.00200697 -0.00150232 0
-0.00186299 -0.000797631 0
-0.000987434 -0.000271899 0
-0.00076448 -9.04681e-05 0
-0.000571735 -0.000379547 0
9.92352e-05 -0.00189593 0
0.000358413 -0.00143818 0
-0.000350494 -0.00152089 0
-0.000338877 -0.00159737 0
0.000306003 0.00226937 0
0.000631087 0.00229635 0
0.000299077 0.00174433 0
-0.00132819 0.00130098 0
-0.00213143 0.00377484 0
-0.00218775 0.00485397 0
-0.00262072 0.00387126 0
-0.00215397 0.000646058 0
-0.00113936 -0.000386761 0
-0.00151262 0.000375312 0
-0.00221613 0.000291545 0
-0.00167716 -0.00129575 0
-0.00154891 -0.00186003 0
-0.00265994 -0.00182671 0
-0.0032678 -0.00221639 0
-0.00304487 -0.0022399 0
-0.0032474 -0.0011484 0
-0.00374126 -0.00137383 0
-0.00292117 -0.000866802 0
-0.00167893 -0.000685461 0
-0.00106244 -0.000543902 0
-0.00115744 -0.00219334 0
-0.000502672 -0.00163662 0
0.000331505 -0.00125607 0
0.000331607 -0.00150554 0
0.000443402 0.00115195 0
0.0001297 0.00355077 0
-0.000907352 0.00248755 0
-0.00143893 0.00220487 0
-0.002598 0.00454891 0
-0.00368901 0.00559685 0
-0.00182622 0.00207901 0
0 0 0
-0.000917004 0.000132162 0
-0.000931981 0.000381937 0
0 0 0
-0.00105551 -0.000728311 0
-0.00255539 -0.000962041 0
-0.00276316 -0.00145011 0
-0.00286065 -0.00172029 0
-0.00403384 -0.00173082 0
-0.00425089 -0.00156913 0
-0.00362682 -0.00117011 0
-0.00385691 -0.00136308 0
-0.00366785 -0.00225383 0
-0.00194235 -0.0014839 0
-0.0014919 -0.00173719 0
-0.0013594 -0.00301105 0
-0.000333186 -0.00275463 0
0.000328206 -0.000711931 0
-0.000642403 0.00140638 0
-0.000806287 0.00387071 0
-0.000640855 0.00338777 0
-0.00249214 0.00348045 0
-0.00374561 0.00510494 0
-0.00209456 0.00435304 0
-0.000754271 0.000378447 0
-0.00184744 0.000361816 0
-0.00131281 -0.000192716 0
0 0 0
-0.000478857 0.000464552 0
-0.00163738 0.000583598 0
-0.00238947 -0.000236085 0
-0.0025883 -0.00125637 0
-0.00313627 -0.000955959 0
-0.004307 -0.000955082 0
-0.0045117 -0.00175461 0
-0.0039899 -0.00126544 0
-0.00379836 -0.00145662 0
-0.00417275 -0.00248751 0
-0.00322849 -0.00274358 0
-0.00159699 -0.00259669 0
-0.00107772 -0.00260058 0
-0.00193649 -0.00311928 0
-0.000916212 -0.00149114 0
-0.000252614 0.00278409 0
-0.000349666 0.00251569 0
-0.000891105 0.00452761 0
-0.00287746 0.00621054 0
-0.00340615 0.00452097 0
-0.00312591 0.00277596 0
-0.00473527 0.00210707 0
-0.0048558 -9.64363e-06 0
-0.00322799 -0.00162921 0
-0.00302029 -0.000427817 0
-0.00314322 0.00131832 0
-0.0027154 0.000986567 0
-0.00199957 -0.000207672 0
-0.00288078 -0.000393162 0
-0.00368584 -0.000410093 0
-0.0031402 -0.000903079 0
-0.00362474 -0.000845093 0
-0.00519115 -0.00174388 0
-0.00417093 -0.00235743 0
-0.00337227 -0.0019086 0
-0.00401246 -0.00351136 0
-0.00348782 -0.00515214 0
-0.00111654 -0.00258852 0
-0.000601155 -0.00254652 0
-0.0001743 -0.00344205 0
0.000509085 0.00240421 0
-0.000570749 0.0040257 0
-0.00250715 0.00598485 0
-0.0024568 0.00630938 0
-0.00225047 0.00491454 0
-0.00368407 0.00415499 0
-0.00427748 0.00287602 0
-0.00470077 -0.000412445 0
-0.00480645 -0.00221932 0
-0.00415828 -0.000997152 0
-0.00364333 0.000957967 0
-0.00289761 1.09463e-05 0
-0.00233912 -0.000506709 0
-0.00242603 0.000156047 0
-0.00248997 -0.000222301 0
-0.00274036 -0.00076197 0
-0.00347525 0.000279267 0
-0.00455712 -0.00146067 0
-0.0044643 -0.00241144 0
-0.00362519 -0.00308096 0
-0.00273676 -0.00304921 0
-0.00393729 -0.00500199 0
-0.00284167 -0.00521602 0
-0.000285589 -0.00414396 0
0.000902221 -0.00251585 0
-4.06469e-05 0.0016816 0
-0.0013881 0.00713172 0
-0.00221237 0.00638458 0
-0.00164565 0.00475535 0
-0.00219271 0.00637099 0
-0.00334946 0.00586869 0
-0.0017731 0.000885638 0
0 0 0
-0.00173686 -0.00123363 0
-0.00284358 -0.00114405 0
-0.0013194 -0.0003314 0
-0.000929539 -0.000350471 0
-0.00158376 3.8816e-05 0
-0.00121245 -0.000294565 0
-0.00100472 -1.48438e-05 0
-0.00281032 0.000576961 0
-0.00271108 1.03689e-05 0
-0.00148594 -0.00109915 0
-0.00355596 -0.000799705 0
-0.00594874 -0.00503983 0
-0.00360467 -0.00354971 0
-0.00284604 -0.00376588 0
-0.00331657 -0.00683206 0
-0.00299368 -0.00720244 0
-0.000428878 -0.00219699 0
-0.00158165 0.00405443 0
-0.0017144 0.00588094 0
-9.92079e-05 0.00612845 0
-0.00192271 0.00685629 0
-0.00264313 0.00585074 0
-0.000216519 0.00363062 0
0.00064864 0.000476006 0
0 0 0
0.000269915 -0.000362901 0
7.50891e-05 -0.00101599 0
-0.000177054 -0.00121237 0
0 0 0
-0.000155798 0.000197361 0
-0.000780418 -0.000105233 0
-0.00121175 0.000458628 0
-0.00117912 0.00104412 0
-0.000738726 -0.000726607 0
-0.00113976 -8.42125e-05 0
-0.00144571 0.000313489 0
-0.00335755 -0.00278536 0
-0.00475375 -0.004519 0
-0.00369406 -0.00653852 0
-0.00177566 -0.0048209 0
-0.00396267 -0.00667769 0
-0.00201428 -0.00612329 0
0.000732844 0.00540932 0
0.000592219 0.00435561 0
-0.00181812 0.00755627 0
-0.00404727 0.00910655 0
-0.00297427 0.00419117 0
-0.00105606 0.00126912 0
-0.000237662 0.00125635 0
0 0 0
-0.000227457 -0.00040992 0
-0.000447759 -0.000914973 0
-0.00100425 -0.000575922 0
-0.000726873 -0.000285468 0
0.000263482 -0.000230093 0
-0.000275779 0.00102065 0
-0.000530647 0.000827124 0
0.000457466 -0.000157037 0
0.000202027 -0.000428975 0
-0.000683313 0.000298208 0
0 0 0
-0.000343264 0.000316278 0
-0.00338399 -0.00288459 0
-0.00668694 -0.00876891 0
-0.00341799 -0.00573883 0
-0.00032511 -0.00707851 0
0.0012165 -0.0080383 0
0.000874132 0.00293044 0
-0.00224788 0.00998697 0
-0.00594514 0.00986981 0
-0.00382976 0.00603819 0
-0.00212029 0.00381648 0
-0.00263483 0.00128588 0
-0.00128395 -0.00111006 0
0 0 0
-0.000507632 0.000548943 0
-0.000913127 -0.0010282 0
-0.00102952 -0.000398491 0
-0.00165265 -0.000690864 0
-0.0018286 -0.000369451 0
-0.000390391 -5.34382e-06 0
0.000866678 0.000351418 0
0.000320938 0.000300412 0
6.53249e-05 0.00010639 0
-3.40595e-06 -3.10163e-05 0
0 0 0
-0.000132122 0.000621922 0
5.46289e-05 -0.000159628 0
-0.00338022 -0.00413935 0
-0.00605294 -0.00970464 0
-0.00353094 -0.0132098 0
0.000904536 -0.00534991 0
-0.00196968 0.0044792 0
-0.00471381 0.0138231 0
-0.00386807 0.00923348 0
-0.00502161 0.00577571 0
-0.00920143 0.00471609 0
-0.00910493 0.000167117 0
-0.00360721 -0.004996 0
0 0 0
-0.00152355 0.00183362 0
-0.00307361 -4.04486e-05 0
-0.00181959 -0.00142382 0
-0.00078621 -0.000113878 0
-0.00120147 -0.000142641 0
-0.0011883 -0.00139203 0
-0.000378573 -0.000955828 0
-7.77405e-06 0.00145866 0
0 0 0
0 0 0
0 0 0
-0.00027845 6.3229e-05 0
0.000906782 0.000198975 0
0.000200645 -0.000242481 0
-0.00590009 -0.0059213 0
-0.0102893 -0.0166706 0
-0.00346617 -0.00955207 0
-0.00253793 0.0111555 0
-0.0023383 0.0089213 0
-0.0014113 0.010291 0
-0.00792734 0.0137262 0
-0.00840263 0.00314258 0
-0.00525109 -0.00241963 0
-0.00829521 -0.00619561 0
-0.0086551 -0.00247314 0
-0.00246289 -0.00062642 0
-0.00110083 0.00182833 0
-0.00374208 -0.0023067 0
-0.00321976 -0.000807379 0
-0.000704081 -0.00181283 0
-0.000259087 0.000113499 0
-0.00166593 -0.00113797 0
-0.00104641 7.28299e-05 0
0 0 0
0 0 0
0 0 0
0 0 0
0 0 0
0 0 0
0 0 0
-0.00439544 -0.010994 0
-0.00405241 -0.0210555 0
0.00365238 0.00956139 0
-0.00099849 0.0132674 0
-0.0107399 0.0149912 0
-0.0104004 0.013828 0
-0.00508754 0.000851828 0
-0.00368241 -0.00163981 0
-0.00783401 -0.00207285 0
-0.0102334 -0.00518031 0
-0.00709464 -0.00413976 0
-0.00397729 0.00124358 0
-0.00251396 -0.00124972 0
-0.00195057 -0.00219479 0
-0.000252884 -0.00441348 0
0.00188439 0.000146149 0
0.00128923 0.000896448 0
-8.22539e-05 -0.00134439 0
0 0 0
0 0 0
0 0 0
0 0 0
-0.00465321 0.00337177 0
-0.0106336 0.000229488 0
-0.00843093 -0.00179925 0
0.00354665 -0.0165125 0
0.00694193 -0.0173335 0
-0.0026738 0.0077014 0
-0.0133557 0.0293874 0
-0.010299 0.0120903 0
0.000169703 0.00541192 0
0 0 0
-0.00169509 0.000391641 0
-0.00122644 0.000336263 0
-0.0027325 -0.00406361 0
-0.00557877 -0.00550192 0
-0.0026918 -0.00507745 0
0 0 0
0.000291915 -0.00458291 0
-0.00166854 -0.00262849 0
-0.00208282 -0.00395795 0
0.00198234 0.00100393 0
-0.000393008 0.00259121 0
-0.00433192 -6.39224e-05 0
-0.00186394 -0.0020618 0
-0.000236203 0.00125223 0
-0.00688885 0.00552382 0
-0.00821174 0.00599874 0
-0.00410288 0.00186079 0
-0.00579507 -0.00460767 0
-0.0071696 -0.0314075 0
-0.00209534 -0.0102053 0
-0.00629673 0.021127 0
-0.0071005 0.0230493 0
0.00593465 0.00237362 0
0.0161456 -1.3938e-05 0
0.0156562 0.00401985 0
0.0120453 -0.0006141 0
0.015758 -0.000985301 0
0.0167876 -0.00102749 0
0.010242 -0.00161666 0
0.00571198 -0.00659605 0
0.0108385 -0.00381947 0
0.00797035 0.000755515 0
0 0 0
0.00240204 -0.00670332 0
0.00473285 -0.000200155 0
0.00214516 0.00723183 0
0 0 0
0.00324219 -0.00568967 0
0.00550853 0.0027668 0
0.00338551 0.00922706 0
0.00637597 0.000466624 0
0.0118388 0.00105429 0
0.00734376 0.000411276 0
-0.00619762 -0.0222699 0
-0.0059393 -0.0223452 0
0.0234932 0.0152828 0
0.051537 0.00363253 0
0.0541511 -0.00191733 0
0.0489111 -0.00170777 0
0.0523637 0.00384061 0
0.0560112 -0.00135093 0
0.0525581 -0.00109907 0
0.0511725 7.63041e-05 0
0.0532379 0.00117036 0
0.0520604 -0.00199898 0
0.0435216 -0.00378477 0
0.0438414 0.0038428 0
0.049524 -0.000236218 0
0.0440605 -0.00358993 0
0.0385308 -0.000197391 0
0.0440119 0.00366633 0
0.0497657 -0.000221197 0
0.0438369 -0.00384853 0
0.0402673 0.00154767 0
0.0487025 0.00406887 0
0.0521757 -0.00199246 0
0.0480009 -0.000542893 0
0.0525194 0.00357327 0
0.0524044 -0.00371231 0
0.0243251 -0.0158279 0


