# vtk DataFile Version 4.0
SiwiRVisFile
ASCII
DATASET STRUCTURED_POINTS
DIMENSIONS 25 25 1
ORIGIN 0 0 0
SPACING 1 1 1
POINT_DATA 625

SCALARS flags double 1
LOOKUP_TABLE default
1
1
1
1
1
1
1
1
1
1
1
1
1
1
1
1
1
1
1
1
1
1
1
1
1
1
1
1
1
1
1
1
1
1
1
1
1
1
1
1
1
1
1
1
1
1
1
1
1
1
1
1
1
1
1
1
1
1
1
1
1
1
1
1
1
1
1
1
1
1
1
1
1
1
1
1
1
1
1
1
1
1
1
1
1
1
1
1
1
1
1
1
1
1
1
1
1
1
1
1
1
1
1
1
1
1
1
1
1
1
1
1
1
1
1
1
1
1
1
1
1
1
1
1
1
1
1
1
1
1
1
1
1
1
1
1
1
1
1
1
1
1
1
1
1
1
1
1
1
1
1
1
1
1
1
1
1
1
1
1
1
1
1
1
1
1
1
1
1
1
1
1
1
1
1
1
1
1
1
1
1
1
1
1
1
1
1
1
1
1
1
1
1
1
1
1
1
1
1
1
1
1
1
1
1
1
1
1
1
1
1
1
1
1
1
1
1
1
1
1
1
1
1
1
1
1
1
1
1
1
1
1
1
1
1
1
1
1
1
1
1
1
1
1
1
1
1
1
1
1
1
1
1
1
1
1
1
1
1
1
1
1
1
1
1
1
1
1
1
1
1
1
1
1
1
1
1
1
1
1
1
1
1
1
1
1
1
1
1
1
1
1
1
1
1
1
1
1
1
1
1
1
1
1
1
1
1
1
1
1
1
1
1
1
1
1
1
1
1
1
1
1
1
1
1
1
1
1
1
1
1
1
1
1
1
1
1
1
1
1
1
1
1
1
1
1
1
1
1
1
1
1
1
1
1
1
1
1
1
1
1
1
1
1
1
1
1
1
1
1
1
1
1
1
1
1
1
1
1
1
1
1
1
1
1
1
1
1
1
1
1
1
1
1
1
1
1
1
1
1
1
1
1
1
1
1
1
1
1
1
1
1
1
1
1
1
1
1
1
1
1
1
1
1
1
1
1
1
1
1
1
1
1
1
1
1
1
1
1
1
1
1
1
1
1
1
1
1
1
1
1
1
1
1
1
1
1
1
1
1
1
1
1
1
1
1
1
1
1
1
1
1
1
1
1
1
1
1
1
1
1
1
1
1
1
1
1
1
1
1
1
1
1
1
1
1
1
1
1
1
1
1
1
1
1
1
1
1
1
1
1
1
1
1
1
1
1
1
1
1
1
1
1
1
1
1
1
1
1
1
1
1
1
1
1
1
1
1
1
1
1
1
1
1
1
1
1
1
1
1
1
1
1
1
1
1
1
1
1
1
1
1
1
1
1
1
1
1
1
1
1
1
1
1
1
1
1
1
1
1
1
1
1
1
1
1
1
1
1
1
1
1
1
1
1
1
1
1
1
1
1
1
1
1
1
1
1
1
1
1
1
1
1
1
1
1
1
1
1
1
1
1
1
1
1

SCALARS density double 1
LOOKUP_TABLE default
0.999928
0.999956
0.999992
0.99991
0.999892
1.00007
1.00006
0.999818
0.999952
1.00023
0.999973
0.999829
1.00025
1.00028
0.999828
0.999975
1.00029
0.999825
0.999526
0.99992
0.999806
0.999299
0.999554
0.999851
0.999411
1.00019
0.999683
0.999893
1.00026
0.999926
0.999754
1.00009
1.00014
0.999853
0.999932
1.00014
1.00006
0.999981
1.00006
1.00009
1.00004
0.999944
0.999809
0.999813
0.999818
0.999606
0.999464
0.999668
0.999686
0.999366
0.999918
1.00011
1.00003
0.99994
1.00007
0.999989
0.99986
1.00007
1.00007
0.999803
1
1.00023
0.999892
0.999853
1.00024
1.00002
0.999631
0.999959
1.00004
0.999438
0.999513
0.999948
0.999504
0.999195
0.999766
0.999945
1.00045
1.00015
0.999716
1.00006
1.00028
0.999894
0.999754
1.00009
1.00011
0.999821
0.99988
1.00012
1.00003
0.999822
0.999889
0.999994
0.999837
0.99964
0.999661
0.99971
0.999611
0.999473
0.999484
0.999614
1.00047
0.999927
1.00008
1.00033
1.00002
0.999894
1.00016
0.999972
0.99978
1.00007
0.999999
0.999735
0.999995
1.00007
0.999708
0.999825
1.00006
0.999641
0.999516
0.99998
0.999668
0.999135
0.999666
0.999899
0.999163
1.00039
0.99997
1.00024
1.0005
1.0001
0.999796
1.00008
1.00024
0.999831
0.999703
1.00006
1.00007
0.999711
0.999747
1.00003
0.999841
0.999579
0.999795
0.999881
0.999549
0.999443
0.999583
0.999482
0.99942
0.99952
0.999999
1.0009
1.00045
1
1.00022
1.00041
0.999796
0.999846
1.00023
0.999889
0.999787
1.00003
0.999842
0.999702
0.999918
0.999783
0.999552
1
1
1
0.999421
0.999904
0.999189
0.99896
0.999853
1.00058
1.00064
1.00032
1
1.00016
1.00034
1.00009
0.99975
1.00006
1.00025
0.999839
0.999685
1.00004
0.999983
0.999484
0.999612
0.999949
1
1
1
0.999411
0.999052
0.999451
0.999513
0.999074
1.00093
0.999575
1.00035
1
1.00008
0.999633
1.00052
1.0004
1
1.00008
1.0002
0.999877
0.999785
0.999844
0.999681
0.99969
0.999648
1
1
1
0.999207
0.998723
0.999535
0.999752
0.998742
1.00005
1.00065
1.00074
1
1.00047
1.00028
0.999962
1.00018
1.00016
0.999941
1.00012
1.00021
0.999721
0.999603
1.00001
0.999644
0.999081
0.99959
0.999618
0.998714
0.999176
0.999794
0.998867
0.998772
0.99973
1.00004
1.00153
1.00048
0.999162
1.00045
1.00107
0.999807
0.999712
1.00065
1.00034
0.999785
0.999914
1.0001
0.999832
0.999611
0.999462
0.999434
0.999574
0.999256
0.998759
0.999317
0.999613
0.998813
0.998582
0.999565
1.00126
0.999774
1.00008
1.00115
1.0001
0.999775
1.00068
1
1.00013
1.00018
1
0.99987
0.999985
0.99992
0.999363
0.999583
0.999867
0.9989
0.99888
0.999916
0.999016
0.998167
0.999662
0.999627
0.997927
1.00076
0.999379
1.00047
1.00147
1.00008
0.999309
1.00051
1.00096
0.999384
1
1.00046
1.00017
0.999611
0.999725
0.999848
0.999593
0.999296
0.999126
0.99926
0.999308
0.998925
0.998671
0.999077
0.999405
0.998641
0.999454
1.00197
1.00084
0.998899
1.00072
1.00145
0.999376
0.999652
1.0005
1.00038
0.999925
1.00008
0.999947
0.999692
0.999875
0.999411
0.998935
0.999813
0.999444
0.997935
0.999211
1.00016
0.997823
0.997889
1.00046
1.00068
1.00126
1.00027
0.999775
1.0006
1.00088
0.999886
0.999559
1.00044
1.00049
0.999793
0.999855
1.00029
0.999789
0.999316
0.999559
0.999566
0.999161
0.998888
0.999052
0.998807
0.998828
0.999085
0.998385
0.998398
1.00194
0.998268
1.0001
1.00263
0.99969
0.998544
1.00162
1
0.99984
0.999704
1.00045
1.00009
0.999659
0.999849
0.999547
0.999494
0.999655
0.998551
0.9987
1.00032
0.998292
0.997019
1.00015
1.00003
0.996368
0.99966
1.00041
1.00085
1.00021
1.0003
1.00025
0.999979
1
0.999976
0.999941
1.00029
1
0.999424
0.999776
0.999966
0.999171
0.999035
0.999476
0.999092
0.998181
0.999055
0.999168
0.997491
0.998741
1.00011
0.998916
1.00348
1.00063
0.997431
1.00113
1.00241
0.99833
1
1.00064
1.00035
0.999185
0.999965
1.00026
0.999348
0.999334
0.999723
0.999134
0.999391
1
0.996618
0.999144
1.0008
0.996801
0.996569
1.00125
1.00215
0.998818
0.999407
1.00172
0.999791
0.999003
1.00097
1
0.999961
1.00019
0.999789
0.99975
0.999963
0.999589
0.999106
0.999706
0.99962
0.998938
1
0.999815
0.997381
0.996883
1.00093
0.999088
0.995079
1.00132
0.996312
0.999892
1.00313
0.999187
0.997774
1.00138
1
0.999363
0.99946
1.00076
0.999633
0.998947
1.0002
0.999957
0.998494
1
1
1
0.999984
0.998044
0.995831
1.00017
1.00099
0.995699
0.996202
1.00318
1.00095
0.996117
1.00026
1.00196
0.998512
0.998916
1.00077
1.00005
0.999866
0.999805
0.999557
0.999183
0.999961
0.999623
1
1
1
1
1
1
1
0.997848
1.00585
0.999702
1.0032
0.998585
0.996381
1.00025
1.00132
0.998591
0.999454
1.001
1.00006
0.998869
0.999901
1.00071
0.998625
0.998503
1.00077
1
1
1
1
1.00479
1.01134
1.00147
1.0006
1.00758
1.00305
0.990554
0.997331
1.00528
1
0.997008
1.00111
1.00098
0.998742
1.00044
1
0.999647
0.999551
1.00047
0.998449
0.997789
1.00179
0.998122
0.999731
1.01007
1.00598
0.9953
1.00551
1.01462
0.998312
0.994305
0.996234
1.00054
0.999832
0.996346
0.998433
1.00011
0.999612
1.00034
1.00216
1.00143
1.00679
1
0.99997
1.00107
0.997735
1
0.999733
1.00326
1.00693
1.00213
1.00041
1.00782
1.00748
1.0036
0.994135
1.00981
0.999149
0.992357
1.00008
1.00125
0.997541
0.998843
1.00165
1.00144
1.00316
1.0082
1.00224
0.994163
0.998922
1.00256
1.00135
1.00703
1.00621
0.99548
1.00265
1.01511
1.00066
0.992466
1.02408

VECTORS velocity double
2.75769e-05 3.16579e-05 0
-9.44396e-05 0.000133773 0
-0.000207265 2.97962e-05 0
-0.000175979 3.91582e-06 0
-0.000149757 2.59127e-05 0
-0.000329651 0.000112266 0
-0.000442315 -1.72059e-05 0
-0.000378923 -2.35483e-05 0
-0.000376657 5.12849e-05 0
-0.000502751 4.59643e-05 0
-0.000482268 -2.08226e-05 0
-0.000418898 2.5073e-05 0
-0.000411473 3.16815e-05 0
-0.000432256 1.43419e-05 0
-0.000402992 1.53608e-05 0
-0.000397381 5.76738e-06 0
-0.000367738 -1.16736e-05 0
-0.000391043 1.01039e-05 0
-0.000439729 2.00581e-05 0
-0.000392267 -8.13613e-05 0
-0.000270025 -1.82298e-05 0
-0.000284782 8.9573e-06 0
-0.000233703 -3.42933e-05 0
-0.000113118 -5.81341e-05 0
-3.55626e-06 4.92416e-06 0
-3.65394e-05 0.000180526 0
-0.000288348 0.000468272 0
-0.000470765 0.000148217 0
-0.000575926 8.37376e-05 0
-0.000903289 0.00030072 0
-0.00112584 0.000256712 0
-0.00102729 -1.37788e-05 0
-0.00117847 8.63807e-05 0
-0.00144562 0.000189032 0
-0.00138741 2.94148e-05 0
-0.00119779 -4.64112e-05 0
-0.00132747 0.000118229 0
-0.00134998 1.86134e-05 0
-0.00111314 -4.63238e-05 0
-0.00107175 9.23048e-05 0
-0.00129725 7.35717e-05 0
-0.00129319 -7.03485e-05 0
-0.00114526 -9.05526e-06 0
-0.00115386 5.17194e-05 0
-0.0012431 -0.00017992 0
-0.00101389 -0.00022292 0
-0.000665132 -0.000125975 0
-0.000487868 -0.000129871 0
-0.000347773 -0.0002579 0
-8.84501e-05 -0.000106087 0
-8.98331e-05 0.000496225 0
-0.000211606 0.000659275 0
-0.000540201 0.00060072 0
-0.00118551 0.000503494 0
-0.00140046 0.000539414 0
-0.00130323 0.000237162 0
-0.00152399 0.000238382 0
-0.00192817 0.000333862 0
-0.00186502 0.000154991 0
-0.00179725 1.53658e-05 0
-0.00193283 6.23605e-06 0
-0.00181852 3.91328e-05 0
-0.00159528 -5.03295e-05 0
-0.00167816 -4.48114e-05 0
-0.00167356 0.000106294 0
-0.00151982 0.000128601 0
-0.00163623 1.99065e-05 0
-0.00186083 -5.5901e-05 0
-0.00165999 -0.000107234 0
-0.0014558 -0.000195818 0
-0.001434 -0.000488695 0
-0.00111944 -0.000597716 0
-0.000554966 -0.00039902 0
-0.000277686 -0.000391911 0
-9.14231e-05 -0.000352748 0
0.000105567 0.000609648 0
-0.000330536 0.00116979 0
-0.00122935 0.00134974 0
-0.00158544 0.000878051 0
-0.00131713 0.000422962 0
-0.00141957 0.000437897 0
-0.00187182 0.000615301 0
-0.00205229 0.000504015 0
-0.00200523 0.000114905 0
-0.00216482 8.73867e-05 0
-0.00223204 -2.28738e-06 0
-0.00192014 -0.000196205 0
-0.00168544 -0.000113516 0
-0.00175553 -1.95428e-05 0
-0.00167581 2.12076e-06 0
-0.00153082 0.00011367 0
-0.0016769 0.000227867 0
-0.00199685 1.50563e-05 0
-0.00196305 -0.000311532 0
-0.00159612 -0.000449946 0
-0.00135372 -0.000610052 0
-0.00124858 -0.000960578 0
-0.00078088 -0.00095827 0
-0.000212406 -0.000693969 0
3.96744e-05 -0.000418512 0
-0.000127618 0.000750354 0
-0.00107055 0.00248319 0
-0.00157908 0.00166102 0
-0.00108323 0.000640181 0
-0.000982841 0.00044789 0
-0.00158739 0.00104502 0
-0.00190072 0.00077782 0
-0.00202325 0.000627604 0
-0.00245615 0.000427405 0
-0.00251917 4.45163e-06 0
-0.00210907 -0.00027337 0
-0.00199336 -0.000339472 0
-0.00190665 -0.000289305 0
-0.00154082 -0.000196117 0
-0.00139997 -2.24365e-05 0
-0.00158157 0.000149226 0
-0.00142964 0.00026347 0
-0.00118197 0.000129832 0
-0.00145228 -0.000212259 0
-0.00171313 -0.00083349 0
-0.00141163 -0.000851105 0
-0.00109535 -0.00109503 0
-0.000866133 -0.00144626 0
-0.000464793 -0.00130518 0
-4.93779e-05 -0.000391181 0
-0.000364893 0.00156143 0
-0.000940844 0.00312125 0
-0.000946743 0.0015305 0
-0.000628165 0.000179929 0
-0.000510131 0.000807295 0
-0.000828043 0.00155751 0
-0.00155436 0.00142845 0
-0.00261646 0.00109226 0
-0.00305782 0.00055921 0
-0.00260149 -0.0003047 0
-0.0020279 -0.000606878 0
-0.00192063 -0.000495918 0
-0.00180427 -0.000540489 0
-0.00149692 -0.000423215 0
-0.00114786 -0.00020692 0
-0.000858946 -2.99654e-05 0
-0.000650943 8.96375e-05 0
-0.000525828 6.99091e-05 0
-0.000495454 -4.49092e-05 0
-0.000825489 -0.000494708 0
-0.00114404 -0.00100274 0
-0.000875457 -0.00158101 0
-0.000515988 -0.00155522 0
-0.000553609 -0.00148545 0
-0.000257809 -0.000804033 0
-0.00011913 0.00234164 0
-0.000202721 0.00280278 0
-5.94156e-05 0.00158904 0
0 0 0
-0.000118756 0.0011457 0
-0.000677293 0.00200071 0
-0.00183193 0.00286152 0
-0.00269795 0.00184374 0
-0.00240354 0.000168048 0
-0.00220332 -0.000665192 0
-0.00226515 -0.000885764 0
-0.00184549 -0.000824504 0
-0.00140089 -0.00072373 0
-0.00143594 -0.000655796 0
-0.00121926 -0.000663211 0
-0.000647872 -0.000407143 0
-0.000158052 -0.000256604 0
0 0 0
0 0 0
0 0 0
-0.000492644 -0.000702353 0
-0.000839983 -0.00200923 0
-0.000359602 -0.00180626 0
-9.29208e-05 -0.001323 0
-3.04179e-05 -0.00120526 0
0.000392654 0.00196651 0
0.000222935 0.00329044 0
-0.000133739 0.00152019 0
0 0 0
-9.54072e-05 0.00143798 0
-0.000971862 0.00324198 0
-0.00167963 0.00340971 0
-0.00148378 0.00195254 0
-0.00112656 -6.58178e-05 0
-0.00115959 -0.000721432 0
-0.00137541 -0.000912512 0
-0.001515 -0.000961904 0
-0.00167098 -0.000781604 0
-0.00162858 -0.00097121 0
-0.00116147 -0.00104428 0
-0.000565816 -0.000933772 0
-0.000105268 -0.000671752 0
0 0 0
0 0 0
0 0 0
-2.97243e-05 -0.000419185 0
-0.000436479 -0.00144613 0
-0.000553623 -0.0024204 0
4.90687e-05 -0.00185344 0
0.00025257 -0.000847118 0
-0.000196774 0.00163381 0
-0.000298702 0.00389899 0
-5.8045e-05 0.00120731 0
0 0 0
-7.24461e-05 0.00173613 0
-0.000636298 0.00455982 0
-0.000790798 0.00297961 0
-0.000265909 0.00124943 0
0 0 0
-0.000410003 -0.000212614 0
-0.00114413 -0.0004129 0
-0.00181558 -0.000669826 0
-0.00191916 -0.000849653 0
-0.00134056 -0.00131699 0
-0.00109495 -0.00129677 0
-0.00124747 -0.00154318 0
-0.000583607 -0.00118175 0
0 0 0
0 0 0
0 0 0
5.99529e-05 -0.00034013 0
0.000120233 -0.00110694 0
-0.000179733 -0.00239591 0
-0.000524017 -0.00232888 0
-0.000223163 -0.000742357 0
-0.000291093 0.00232152 0
-5.12439e-05 0.00305617 0
0.000269995 0.00126731 0
0 0 0
-0.00082265 0.00256194 0
-0.0018172 0.00444318 0
-0.00163286 0.00312193 0
-0.00136167 0.000917425 0
-0.00139046 7.08695e-05 0
-0.00127432 0.000167482 0
-0.00157852 0.000514603 0
-0.00206369 -0.000506477 0
-0.00190978 -0.00116605 0
-0.00193272 -0.00140253 0
-0.00200944 -0.00146571 0
-0.00178322 -0.00181373 0
-0.00184494 -0.00126006 0
-0.0017356 -0.000678326 0
-0.000970519 -0.000183722 0
-0.000804143 -1.07769e-05 0
-0.000673956 -0.000317968 0
-2.45723e-05 -0.00193308 0
0.000259103 -0.00158173 0
-0.000402995 -0.00167402 0
-0.000369714 -0.00161883 0
0.000269876 0.0022944 0
0.000545218 0.00238437 0
0.000233349 0.00173342 0
-0.00130641 0.00123554 0
-0.00202816 0.00350425 0
-0.0020461 0.0044264 0
-0.00256604 0.00350688 0
-0.00235906 0.00053112 0
-0.00146262 -0.000427461 0
-0.00183503 0.000581332 0
-0.00233631 0.000544212 0
-0.00147126 -0.000744265 0
-0.00127721 -0.00106593 0
-0.00230635 -0.000956465 0
-0.00286019 -0.00141961 0
-0.00266773 -0.00171925 0
-0.00299485 -0.000917208 0
-0.00357864 -0.00120453 0
-0.00289589 -0.000783526 0
-0.00172024 -0.000655539 0
-0.00116989 -0.00055786 0
-0.00128439 -0.0023475 0
-0.000614525 -0.00197395 0
0.000309744 -0.00155733 0
0.00032279 -0.00170211 0
0.000397679 0.0012151 0
1.87837e-05 0.0035891 0
-0.00101245 0.00237343 0
-0.00143644 0.00194472 0
-0.00243159 0.00415512 0
-0.00347359 0.00508692 0
-0.00173522 0.00188983 0
0 0 0
-0.00100782 0.000212207 0
-0.00102575 0.000490363 0
0 0 0
-0.000964155 -0.000321406 0
-0.00237616 -0.000281329 0
-0.00248307 -0.000644816 0
-0.00246918 -0.00101035 0
-0.00353889 -0.00113808 0
-0.00389581 -0.00111173 0
-0.00340056 -0.000831219 0
-0.00378302 -0.00109653 0
-0.00363609 -0.00203786 0
-0.00196939 -0.00137072 0
-0.00150362 -0.00177247 0
-0.00148335 -0.00325543 0
-0.000380757 -0.00306554 0
0.000317866 -0.0007896 0
-0.000652922 0.00147625 0
-0.000852302 0.00388335 0
-0.000686369 0.00320506 0
-0.00245572 0.00300598 0
-0.00360174 0.00453965 0
-0.00199478 0.00395861 0
-0.000864754 0.000364023 0
-0.00215985 0.000395701 0
-0.00150861 -0.000123549 0
0 0 0
-0.000599522 0.000601604 0
-0.00182575 0.000851636 0
-0.00244828 0.000340966 0
-0.00240996 -0.000589713 0
-0.00289373 -0.000403984 0
-0.00398399 -0.000394164 0
-0.00430161 -0.00120757 0
-0.00381903 -0.000891201 0
-0.0037761 -0.00119913 0
-0.00415277 -0.00233086 0
-0.00330365 -0.00276252 0
-0.00153431 -0.0027194 0
-0.0011179 -0.00281899 0
-0.00196738 -0.00359914 0
-0.000979282 -0.00171065 0
-0.00026794 0.00281258 0
-0.000359744 0.00246116 0
-0.000794983 0.0041953 0
-0.00266795 0.00559597 0
-0.00326599 0.00394391 0
-0.00326134 0.00258165 0
-0.00511622 0.00218017 0
-0.00523815 -3.43963e-05 0
-0.00358277 -0.00184051 0
-0.00340653 -0.00047276 0
-0.00358661 0.00156025 0
-0.0032401 0.00124634 0
-0.00242829 0.00010655 0
-0.00292645 -7.37569e-06 0
-0.0036876 0.000177994 0
-0.00320098 -0.000239352 0
-0.00387333 -0.00025352 0
-0.0053758 -0.00123402 0
-0.00448324 -0.00196656 0
-0.00349972 -0.00171738 0
-0.00424923 -0.003478 0
-0.00354068 -0.00531684 0
-0.00114495 -0.0028649 0
-0.000486881 -0.0029523 0
-0.000227509 -0.00372228 0
0.000500074 0.0024101 0
-0.00052798 0.00384024 0
-0.0023311 0.00543746 0
-0.00223716 0.00566568 0
-0.00213825 0.0045089 0
-0.00375798 0.00413914 0
-0.004494 0.00305413 0
-0.00498803 -0.000406262 0
-0.0052089 -0.00232339 0
-0.00473779 -0.000875916 0
-0.0043204 0.00122476 0
-0.00345219 0.000258001 0
-0.00278511 -0.000439703 0
-0.00277794 0.000378695 0
-0.00294161 0.000416358 0
-0.00316412 1.00386e-05 0
-0.0042189 0.000933047 0
-0.00542627 -0.000915823 0
-0.00562694 -0.00219687 0
-0.00425436 -0.00323399 0
-0.00314447 -0.00319524 0
-0.00401118 -0.00524965 0
-0.00302814 -0.00566568 0
-0.000142097 -0.00442735 0
0.000830744 -0.00271688 0
-2.78596e-05 0.00162414 0
-0.0013156 0.00680355 0
-0.00204866 0.00568884 0
-0.00148586 0.00408406 0
-0.00210898 0.00602184 0
-0.00335907 0.00586004 0
-0.00179507 0.000966683 0
0 0 0
-0.00188192 -0.00120538 0
-0.00319143 -0.000931395 0
-0.00166308 -0.000209994 0
-0.00111792 -0.00029181 0
-0.00182867 0.000120193 0
-0.00167967 9.82924e-05 0
-0.001806 0.000657274 0
-0.0036512 0.00150297 0
-0.00393044 0.0010344 0
-0.00272496 -0.000280775 0
-0.00513215 -0.00069885 0
-0.00700071 -0.00557192 0
-0.00443007 -0.00416601 0
-0.00297879 -0.00421863 0
-0.00373795 -0.0074467 0
-0.00309058 -0.00796431 0
-0.000536445 -0.00257131 0
-0.00156234 0.00392384 0
-0.00168208 0.00547829 0
-6.89941e-05 0.00542033 0
-0.00190914 0.00614135 0
-0.00259155 0.00545654 0
-0.000152662 0.0036403 0
0.000675428 0.000552343 0
0 0 0
0.000284419 -0.000163311 0
9.84825e-05 -0.000756866 0
-0.000146761 -0.00108233 0
0 0 0
-0.000433477 0.000618058 0
-0.00145386 0.000652603 0
-0.00226817 0.00134554 0
-0.00228165 0.00200794 0
-0.0019729 0.000344582 0
-0.00202247 0.000694302 0
-0.00246352 0.000260317 0
-0.00401339 -0.00356204 0
-0.00580357 -0.00561339 0
-0.00396057 -0.00721359 0
-0.00225136 -0.00492969 0
-0.00411307 -0.00737301 0
-0.00228139 -0.00629359 0
0.000696075 0.00531159 0
0.000483848 0.00390131 0
-0.00189531 0.00680636 0
-0.00411463 0.00830332 0
-0.00301085 0.00369659 0
-0.00104308 0.0010597 0
-0.000187845 0.00121163 0
0 0 0
-0.00020758 -0.000348826 0
-0.000529484 -0.000726332 0
-0.00122881 -0.000416652 0
-0.00131058 -1.39529e-05 0
-0.000604519 0.000398221 0
-0.00115849 0.00195802 0
-0.00156359 0.0019819 0
-0.000567312 0.000790087 0
-0.000684972 0.000318203 0
-0.000925031 0.000674776 0
0 0 0
-0.000342488 -0.000197183 0
-0.00437903 -0.00389403 0
-0.00717123 -0.00984643 0
-0.00406868 -0.00650515 0
-0.000380023 -0.00820999 0
0.00106013 -0.00892329 0
0.000891403 0.00289467 0
-0.00228339 0.00957083 0
-0.00606204 0.0090859 0
-0.00407805 0.0051899 0
-0.0023932 0.00323746 0
-0.00275666 0.000945076 0
-0.0013055 -0.00107316 0
0 0 0
-0.000559265 0.000802014 0
-0.00141403 -0.000459147 0
-0.00196036 3.35e-05 0
-0.00274197 -0.000126127 0
-0.00297381 0.000310171 0
-0.00149255 0.000878876 0
-7.92275e-05 0.0012894 0
-0.000285516 0.00102649 0
-0.000157642 0.000279252 0
1.98635e-05 -2.49083e-05 0
0 0 0
0.000134981 0.000437614 0
-0.000537939 -0.000717411 0
-0.00399831 -0.00467913 0
-0.00736563 -0.0106422 0
-0.00396479 -0.0139145 0
0.000606949 -0.00577096 0
-0.00193047 0.00435222 0
-0.00464249 0.0134511 0
-0.00390421 0.00864113 0
-0.00544638 0.00518319 0
-0.00997728 0.00397121 0
-0.00966182 -0.000498678 0
-0.0038346 -0.00540284 0
0 0 0
-0.00205626 0.00253494 0
-0.00426445 0.0008814 0
-0.00324104 -0.000726899 0
-0.00208505 0.000314946 0
-0.00233781 0.000381862 0
-0.0021614 -0.000647019 0
-0.00107826 -0.000540873 0
-0.000198209 0.00188998 0
0 0 0
0 0 0
0 0 0
0.000116152 6.06863e-05 0
0.000425378 1.19442e-06 0
5.83157e-05 -0.000408983 0
-0.00699798 -0.00682785 0
-0.0113277 -0.0186381 0
-0.003575 -0.0110881 0
-0.00253006 0.0109621 0
-0.0025198 0.00855311 0
-0.00176579 0.00989447 0
-0.00850748 0.013424 0
-0.00926438 0.00250431 0
-0.00632829 -0.00326141 0
-0.00921446 -0.00700537 0
-0.00947755 -0.00204954 0
-0.0037597 0.000736997 0
-0.0024629 0.00307033 0
-0.00524726 -0.0016964 0
-0.00448938 -0.000796215 0
-0.00173355 -0.00160744 0
-0.00057755 0.000571272 0
-0.00202864 -0.000902589 0
-0.000990029 -0.000163263 0
0 0 0
0 0 0
0 0 0
0 0 0
0 0 0
0 0 0
0 0 0
-0.00459213 -0.0130289 0
-0.00398412 -0.022104 0
0.00348127 0.00964506 0
-0.00152406 0.0130992 0
-0.01111 0.014621 0
-0.0106481 0.0137593 0
-0.00540992 0.000736876 0
-0.00454491 -0.00240103 0
-0.00902804 -0.0029877 0
-0.0115435 -0.00486599 0
-0.00834833 -0.00279018 0
-0.00501302 0.0024168 0
-0.00340495 -0.000771375 0
-0.00226389 -0.00220509 0
-0.00111668 -0.00429934 0
0.00159683 -0.000322732 0
0.00105232 0.00109366 0
0.000147583 -0.00134722 0
0 0 0
0 0 0
0 0 0
0 0 0
-0.00426936 0.00337586 0
-0.0103051 0.000273541 0
-0.0074125 -0.00230194 0
0.00378515 -0.0180069 0
0.00769936 -0.0186443 0
-0.00258835 0.00779135 0
-0.0135066 0.0292065 0
-0.0105989 0.0113002 0
-5.21586e-05 0.00465838 0
0 0 0
-0.00210519 0.000174955 0
-0.00251614 -1.34003e-06 0
-0.00370418 -0.00404938 0
-0.00668674 -0.00432054 0
-0.00281917 -0.0043032 0
0 0 0
9.96796e-05 -0.00487349 0
-0.00226204 -0.0028353 0
-0.0025468 -0.0038678 0
0.00165659 0.000854367 0
-0.000329108 0.00225978 0
-0.00547237 -0.000193998 0
-0.00182962 -0.00201147 0
-0.000262936 0.00173881 0
-0.00669686 0.00559897 0
-0.00810684 0.00575288 0
-0.00365205 0.0014736 0
-0.00459373 -0.00509107 0
-0.00728626 -0.0318853 0
-0.00148213 -0.0108164 0
-0.00639521 0.0214285 0
-0.00716964 0.0230992 0
0.00568529 0.00230907 0
0.0155457 -0.000413798 0
0.0145368 0.0043053 0
0.0116655 -0.000112628 0
0.0142492 -0.000985146 0
0.0161353 -0.000840807 0
0.00877002 -0.00153742 0
0.00596472 -0.00589878 0
0.0100572 -0.00411209 0
0.00791016 0.00159099 0
0 0 0
0.00308956 -0.00656042 0
0.00349936 -0.00138599 0
0.00128445 0.00765312 0
0 0 0
0.00328074 -0.00584212 0
0.00426303 0.00199819 0
0.00356827 0.00936264 0
0.00659853 4.22721e-05 0
0.0119285 0.00109188 0
0.00767505 0.000433251 0
-0.00671287 -0.0227646 0
-0.00532589 -0.0225145 0
0.0234034 0.0149876 0
0.0515835 0.00351725 0
0.0538516 -0.00237695 0
0.048551 -0.00195122 0
0.0514144 0.00343134 0
0.0554863 -0.00143511 0
0.0519148 -0.0011572 0
0.0507433 -8.56888e-05 0
0.0527941 0.00151119 0
0.051233 -0.0021791 0
0.0440543 -0.00332489 0
0.0427921 0.00349619 0
0.0507473 0.00219085 0
0.0421889 -0.00381688 0
0.0400722 0.000577563 0
0.0425948 0.00327595 0
0.0500044 0.000892926 0
0.0428181 -0.00382241 0
0.0407501 0.00189475 0
0.0480359 0.00392394 0
0.0521412 -0.00183758 0
0.0476237 -0.000954459 0
0.0527121 0.00378442 0
0.0519034 -0.0039941 0
0.0284302 -0.0176319 0


