# vtk DataFile Version 4.0
SiwiRVisFile
ASCII
DATASET STRUCTURED_POINTS
DIMENSIONS 50 50 1
ORIGIN 0 0 0
SPACING 1 1 1
POINT_DATA 2500


SCALARS flags double 1
LOOKUP_TABLE default
1
1
1
1
1
1
1
1
1
1
1
1
1
1
1
1
1
1
1
1
1
1
1
1
1
1
1
1
1
1
1
1
1
1
1
1
1
1
1
1
1
1
1
1
1
1
1
1
1
1
1
1
1
1
1
1
1
1
1
1
1
1
1
1
1
1
1
1
1
1
1
1
1
1
1
1
1
1
1
1
1
1
1
1
1
1
1
1
1
1
1
1
1
1
1
1
1
1
1
1
1
1
1
1
1
1
1
1
1
1
1
1
1
1
1
1
1
1
1
1
1
1
1
1
1
1
1
1
1
1
1
1
1
1
1
1
1
1
1
1
1
1
1
1
1
1
1
1
1
1
1
1
1
1
1
1
1
1
1
1
1
1
1
1
1
1
1
1
1
1
1
1
1
1
1
1
1
1
1
1
1
1
1
1
1
1
1
1
1
1
1
1
1
1
1
1
1
1
1
1
1
1
1
1
1
1
1
1
1
1
1
1
1
1
1
1
1
1
1
1
1
1
1
1
1
1
1
1
1
1
1
1
1
1
1
1
1
1
1
1
1
1
1
1
1
1
1
1
1
1
1
1
1
1
1
1
1
1
1
1
1
1
1
1
1
1
1
1
1
1
1
1
1
1
1
1
1
1
1
1
1
1
1
1
1
1
1
1
1
1
1
1
1
1
1
1
1
1
1
1
1
1
1
1
1
1
1
1
1
1
1
1
1
1
1
1
1
1
1
1
1
1
1
1
1
1
1
1
1
1
1
1
1
1
1
1
1
1
1
1
1
1
1
1
1
1
1
1
1
1
1
1
1
1
1
1
1
1
1
1
1
1
1
1
1
1
1
1
1
1
1
1
1
1
1
1
1
1
1
1
1
1
1
1
1
1
1
1
1
1
1
1
1
1
1
1
1
1
1
1
1
1
1
1
1
1
1
1
1
1
1
1
1
1
1
1
1
1
1
1
1
1
1
1
1
1
1
1
1
1
1
1
1
1
1
1
1
1
1
1
1
1
1
1
1
1
1
1
1
1
1
1
1
1
1
1
1
1
1
1
1
1
1
1
1
1
1
1
1
1
1
1
1
1
1
1
1
1
1
1
1
1
1
1
1
1
1
1
1
1
1
1
1
1
1
1
1
1
1
1
1
1
1
1
1
1
1
1
1
1
1
1
1
1
1
1
1
1
1
1
1
1
1
1
1
1
1
1
1
1
1
1
1
1
1
1
1
1
1
1
1
1
1
1
1
1
1
1
1
1
1
1
1
1
1
1
1
1
1
1
1
1
1
1
1
1
1
1
1
1
1
1
1
1
1
1
1
1
1
1
1
1
1
1
1
1
1
1
1
1
1
1
1
1
1
1
1
1
1
1
1
1
1
1
1
1
1
1
1
1
1
1
1
1
1
1
1
1
1
1
1
1
1
1
1
1
1
1
1
1
1
1
1
1
1
1
1
1
1
1
1
1
1
1
1
1
1
1
1
1
1
1
1
1
1
1
1
1
1
1
1
1
1
1
1
1
1
1
1
1
1
1
1
1
1
1
1
1
1
1
1
1
1
1
1
1
1
1
1
1
1
1
1
1
1
1
1
1
1
1
1
1
1
1
1
1
1
1
1
1
1
1
1
1
1
1
1
1
1
1
1
1
1
1
1
1
1
1
1
1
1
1
1
1
1
1
1
1
1
1
1
1
1
1
1
1
1
1
1
1
1
1
1
1
1
1
1
1
1
1
1
1
1
1
1
1
1
1
1
1
1
1
1
1
1
1
1
1
1
1
1
1
1
1
1
1
1
1
1
1
1
1
1
1
1
1
1
1
1
1
1
1
1
1
1
1
1
1
1
1
1
1
1
1
1
1
1
1
1
1
1
1
1
1
1
1
1
1
1
1
1
1
1
1
1
1
1
1
1
1
1
1
1
1
1
1
1
1
1
1
1
1
1
1
1
1
1
1
1
1
1
1
1
1
1
1
1
1
1
1
1
1
1
1
1
1
1
1
1
1
1
1
1
1
1
1
1
1
1
1
1
1
1
1
1
1
1
1
1
1
1
1
1
1
1
1
1
1
1
1
1
1
1
1
1
1
1
1
1
1
1
1
1
1
1
1
1
1
1
1
1
1
1
1
1
1
1
1
1
1
1
1
1
1
1
1
1
1
1
1
1
1
1
1
1
1
1
1
1
1
1
1
1
1
1
1
1
1
1
1
1
1
1
1
1
1
1
1
1
1
1
1
1
1
1
1
1
1
1
1
1
1
1
1
1
1
1
1
1
1
1
1
1
1
1
1
1
1
1
1
1
1
1
1
1
1
1
1
1
1
1
1
1
1
1
1
1
1
1
1
1
1
1
1
1
1
1
1
1
1
1
1
1
1
1
1
1
1
1
1
1
1
1
1
1
1
1
1
1
1
1
1
1
1
1
1
1
1
1
1
1
1
1
1
1
1
1
1
1
1
1
1
1
1
1
1
1
1
1
1
1
1
1
1
1
1
1
1
1
1
1
1
1
1
1
1
1
1
1
1
1
1
1
1
1
1
1
1
1
1
1
1
1
1
1
1
1
1
1
1
1
1
1
1
1
1
1
1
1
1
1
1
1
1
1
1
1
1
1
1
1
1
1
1
1
1
1
1
1
1
1
1
1
1
1
1
1
1
1
1
1
1
1
1
1
1
1
1
1
1
1
1
1
1
1
1
1
1
1
1
1
1
1
1
1
1
1
1
1
1
1
1
1
1
1
1
1
1
1
1
1
1
1
1
1
1
1
1
1
1
1
1
1
1
1
1
1
1
1
1
1
1
1
1
1
1
1
1
1
1
1
1
1
1
1
1
1
1
1
1
1
1
1
1
1
1
1
1
1
1
1
1
1
1
1
1
1
1
1
1
1
1
1
1
1
1
1
1
1
1
1
1
1
1
1
1
1
1
1
1
1
1
1
1
1
1
1
1
1
1
1
1
1
1
1
1
1
1
1
1
1
1
1
1
1
1
1
1
1
1
1
1
1
1
1
1
1
1
1
1
1
1
1
1
1
1
1
1
1
1
1
1
1
1
1
1
1
1
1
1
1
1
1
1
1
1
1
1
1
1
1
1
1
1
1
1
1
1
1
1
1
1
1
1
1
1
1
1
1
1
1
1
1
1
1
1
1
1
1
1
1
1
1
1
1
1
1
1
1
1
1
1
1
1
1
1
1
1
1
1
1
1
1
1
1
1
1
1
1
1
1
1
1
1
1
1
1
1
1
1
1
1
1
1
1
1
1
1
1
1
1
1
1
1
1
1
1
1
1
1
1
1
1
1
1
1
1
1
1
1
1
1
1
1
1
1
1
1
1
1
1
1
1
1
1
1
1
1
1
1
1
1
1
1
1
1
1
1
1
1
1
1
1
1
1
1
1
1
1
1
1
1
1
1
1
1
1
1
1
1
1
1
1
1
1
1
1
1
1
1
1
1
1
1
1
1
1
1
1
1
1
1
1
1
1
1
1
1
1
1
1
1
1
1
1
1
1
1
1
1
1
1
1
1
1
1
1
1
1
1
1
1
1
1
1
1
1
1
1
1
1
1
1
1
1
1
1
1
1
1
1
1
1
1
1
1
1
1
1
1
1
1
1
1
1
1
1
1
1
1
1
1
1
1
1
1
1
1
1
1
1
1
1
1
1
1
1
1
1
1
1
1
1
1
1
1
1
1
1
1
1
1
1
1
1
1
1
1
1
1
1
1
1
1
1
1
1
1
1
1
1
1
1
1
1
1
1
1
1
1
1
1
1
1
1
1
1
1
1
1
1
1
1
1
1
1
1
1
1
1
1
1
1
1
1
1
1
1
1
1
1
1
1
1
1
1
1
1
1
1
1
1
1
1
1
1
1
1
1
1
1
1
1
1
1
1
1
1
1
1
1
1
1
1
1
1
1
1
1
1
1
1
1
1
1
1
1
1
1
1
1
1
1
1
1
1
1
1
1
1
1
1
1
1
1
1
1
1
1
1
1
1
1
1
1
1
1
1
1
1
1
1
1
1
1
1
1
1
1
1
1
1
1
1
1
1
1
1
1
1
1
1
1
1
1
1
1
1
1
1
1
1
1
1
1
1
1
1
1
1
1
1
1
1
1
1
1
1
1
1
1
1
1
1
1
1
1
1
1
1
1
1
1
1
1
1
1
1
1
1
1
1
1
1
1
1
1
1
1
1
1
1
1
1
1
1
1
1
1
1
1
1
1
1
1
1
1
1
1
1
1
1
1
1
1
1
1
1
1
1
1
1
1
1
1
1
1
1
1
1
1
1
1
1
1
1
1
1
1
1
1
1
1
1
1
1
1
1
1
1
1
1
1
1
1
1
1
1
1
1
1
1
1
1
1
1
1
1
1
1
1
1
1
1
1
1
1
1
1
1
1
1
1
1
1
1
1
1
1
1
1
1
1
1
1
1
1
1
1
1
1
1
1
1
1
1
1
1
1
1
1
1
1
1
1
1
1
1
1
1
1
1
1
1
1
1
1
1
1
1
1
1
1
1
1
1
1
1
1
1
1
1
1
1
1
1
1
1
1
1
1
1
1
1
1
1
1
1
1
1
1
1
1
1
1
1
1
1
1
1
1
1
1
1
1
1
1
1
1
1
1
1
1
1
1
1
1
1
1
1
1
1
1
1
1
1
1
1
1
1
1
1
1
1
1
1
1
1
1
1
1
1
1
1
1
1
1
1
1
1
1
1
1
1
1
1
1
1
1
1
1
1
1
1
1
1
1
1
1
1
1
1
1
1
1
1
1
1
1
1
1
1
1
1
1
1
1
1
1
1
1
1
1
1
1
1
1
1
1
1
1
1
1
1
1
1
1
1
1
1
1
1
1
1
1
1
1
1
1
1
1
1
1
1
1
1
1
1
1
1
1
1
1
1
1
1
1
1
1
1
1
1
1
1
1
1
1
1
1
1
1
1
1
1
1
1
1
1
1
1
1
1
1
1
1
1
1
1
1
1
1
1
1
1
1
1
1
1
1
1
1
1
1
1
1
1
1
1
1
1
1
1
1
1
1
1
1
1
1
1
1
1
1
1
1
1
1
1
1
1
1
1
1
1
1
1
1
1
1
1
1
1
1
1
1
1
1
1
1
1
1
1
1
1
1
1
1
1
1
1
1
1
1
1
1
1
1
1
1
1
1
1
1
1
1
1
1
1
1
1
1
1
1
1
1
1
1
1
1
1
1
1
1
1
1
1
1
1
1
1
1
1
1
1
1
1
1
1
1
1
1
1
1
1
1
1
1
1
1
1
1
1
1
1
1
1
1
1
1
1
1
1
1
1
1
1
1
1
1
1
1
1
1
1
1
1
1
1
1
1
1
1
1
1
1
1
1
1
1
1
1
1
1
1
1
1
1
1
1
1
1
1
1
1
1
1
1
1
1
1
1
1
1
1
1
1
1
1
1
1
1
1
1
1
1
1
1
1
1
1
1
1
1
1
1
1
1
1
1
1
1
1
1
1
1
1
1
1
1
1
1
1
1
1
1
1
1
1
1
1
1
1
1
1
1
1
1
1
1
1
1
1
1
1
1
1
1
1
1
1
1
1
1
1
1
1
1
1
1
1
1
1
1
1
1
1
1
1
1
1
1
1
1
1
1
1
1
1
1
1
1
1
1
1
1
1
1
1
1
1

SCALARS density double 1
LOOKUP_TABLE default
0.998995
0.998901
0.998873
0.998856
0.998818
0.998844
0.998881
0.998917
0.998941
0.999035
0.999101
0.999147
0.999248
0.999364
0.999414
0.999476
0.999612
0.999691
0.999702
0.999778
0.999872
0.999864
0.999852
0.999932
0.999952
0.9999
0.999927
0.999998
0.999976
0.999969
1.00005
1.00011
1.00011
1.00017
1.00028
1.00032
1.00035
1.00044
1.00051
1.00053
1.00057
1.00065
1.00065
1.00067
1.0007
1.00073
1.00068
1.00068
1.00067
1.0006
0.998875
0.998734
0.998703
0.998759
0.998683
0.998715
0.998746
0.998775
0.9988
0.998891
0.998945
0.999003
0.999096
0.999204
0.99928
0.999357
0.999468
0.999568
0.99962
0.999696
0.999785
0.99982
0.999841
0.999896
0.99993
0.99992
0.999947
0.999998
1.00002
1.00004
1.00011
1.00017
1.0002
1.00027
1.00035
1.00041
1.00045
1.00053
1.00059
1.00062
1.00066
1.00072
1.00073
1.00075
1.00077
1.0008
1.00074
1.00079
1.00077
1.00067
0.998579
0.998557
0.998505
0.998504
0.998496
0.998527
0.9985
0.998561
0.998613
0.998619
0.998681
0.998785
0.998853
0.998894
0.999032
0.999154
0.999204
0.99931
0.999469
0.999554
0.999593
0.999718
0.999816
0.999824
0.999863
0.999971
1
1
1.00009
1.00019
1.0002
1.00026
1.00039
1.00045
1.00047
1.00056
1.00065
1.00066
1.00071
1.00078
1.00082
1.00081
1.00085
1.00091
1.00087
1.0009
1.0009
1.0009
1.00085
1.00086
0.998267
0.998311
0.998299
0.998266
0.998312
0.998347
0.998313
0.998359
0.998384
0.998415
0.998437
0.998506
0.998559
0.998619
0.99871
0.998809
0.998911
0.999019
0.999153
0.999279
0.999406
0.99953
0.99965
0.999757
0.999853
0.999942
1.00003
1.00012
1.00021
1.0003
1.0004
1.00047
1.00056
1.00063
1.00069
1.00075
1.0008
1.00085
1.00087
1.00092
1.00093
1.00096
1.00097
1.00101
1.00099
1.00101
1.00105
1.00103
1.00102
1.00105
0.998064
0.998092
0.998129
0.998209
0.998189
0.998216
0.99827
0.998273
0.998258
0.998302
0.998338
0.998299
0.998343
0.998432
0.998435
0.998468
0.998605
0.998721
0.998775
0.998937
0.999151
0.99927
0.999409
0.999634
0.999818
0.999911
1.00008
1.00028
1.00038
1.00045
1.00061
1.00072
1.00073
1.00081
1.00091
1.00092
1.00091
1.00099
1.00102
1.00099
1.00103
1.00107
1.00106
1.00106
1.00111
1.00114
1.0011
1.00116
1.00119
1.00119
0.997948
0.998028
0.99809
0.998171
0.998187
0.99822
0.998256
0.998306
0.998283
0.998299
0.998316
0.998312
0.998308
0.998283
0.998322
0.998329
0.998347
0.998411
0.998518
0.998625
0.998762
0.998988
0.999202
0.999433
0.999671
0.999945
1.00016
1.00036
1.00053
1.0007
1.00078
1.00086
1.00094
1.00097
1.00098
1.001
1.00105
1.00104
1.00105
1.00108
1.00109
1.00112
1.00111
1.00116
1.00117
1.0012
1.00121
1.00125
1.00128
1.00131
0.997926
0.998071
0.998106
0.998104
0.998202
0.998262
0.998244
0.998285
0.998367
0.998362
0.998324
0.998407
0.998376
0.998319
0.998318
0.998345
0.998264
0.998253
0.998356
0.998402
0.998477
0.9987
0.998999
0.99921
0.99953
0.999906
1.00021
1.00039
1.00066
1.00085
1.00091
1.00094
1.00105
1.00106
1.00101
1.00107
1.0011
1.00108
1.00108
1.00118
1.00115
1.00115
1.00123
1.00126
1.00123
1.00127
1.00134
1.00133
1.00132
1.0014
0.998034
0.998081
0.998111
0.99812
0.998126
0.998198
0.998201
0.998236
0.998294
0.998335
0.998374
0.998376
0.998432
0.998443
0.998413
0.998379
0.998387
0.998354
0.998289
0.998339
0.998454
0.998562
0.998761
0.999111
0.99945
0.999759
1.0001
1.00045
1.00065
1.00079
1.00093
1.00103
1.00101
1.00104
1.0011
1.00111
1.00111
1.00116
1.00122
1.00121
1.00126
1.00129
1.00132
1.00134
1.00134
1.0014
1.00137
1.0014
1.0014
1.00142
0.998165
0.998086
0.998095
0.998156
0.998076
0.998076
0.998132
0.998175
0.998104
0.998205
0.998285
0.998297
0.998331
0.998442
0.998472
0.998441
0.998512
0.998515
0.998467
0.998485
0.998578
0.998655
0.998772
0.999072
0.999354
0.999635
0.999945
1.00029
1.00049
1.00065
1.00084
1.00094
1.00099
1.00105
1.00116
1.00116
1.0012
1.00129
1.00131
1.00132
1.00136
1.00144
1.00137
1.0014
1.00145
1.00145
1.00139
1.00145
1.00146
1.00142
0.998229
0.998214
0.998143
0.998174
0.99812
0.998133
0.998071
0.998089
0.998098
0.998067
0.998105
0.99816
0.998202
0.998258
0.99835
0.998486
0.998511
0.998602
0.998748
0.9988
0.99881
0.998927
0.999096
0.999116
0.999301
0.999541
0.999779
0.999909
1.00022
1.00048
1.00062
1.00078
1.001
1.00113
1.00116
1.0013
1.00135
1.00137
1.00139
1.00143
1.00145
1.0014
1.00144
1.00146
1.00141
1.00144
1.00142
1.00145
1.00141
1.00145
0.998285
0.998338
0.998244
0.998229
0.998215
0.998272
0.998151
0.998129
0.99816
0.99811
0.998036
0.998051
0.998137
0.998085
0.998189
0.998347
0.998498
0.998646
0.99888
0.999086
0.999198
0.999336
0.999388
0.999409
0.999376
0.999459
0.999499
0.999655
0.999856
1.00015
1.0004
1.00069
1.00095
1.00111
1.00125
1.00136
1.00144
1.00139
1.00145
1.00146
1.00142
1.0014
1.00143
1.00143
1.00136
1.00141
1.00143
1.00142
1.00137
1.00144
0.998327
0.998271
0.998234
0.99833
0.998207
0.998225
0.99827
0.998224
0.998168
0.998189
0.998168
0.998085
0.998045
0.998134
0.998115
0.99819
0.99842
0.998692
0.9989
0.999206
0.999565
0.999658
0.999666
0.999704
0.999613
0.999386
0.999355
0.999477
0.999605
0.999791
1.00024
1.00057
1.0008
1.00107
1.00129
1.00136
1.00134
1.00146
1.00144
1.00138
1.0014
1.00145
1.00141
1.00138
1.00145
1.00146
1.00137
1.00146
1.00144
1.00141
0.998237
0.998155
0.998117
0.998205
0.998097
0.998111
0.998167
0.998214
0.998166
0.998173
0.998261
0.998188
0.998153
0.998175
0.998247
0.998266
0.998413
0.998701
0.99898
0.999285
0.999592
0.999826
0.999925
0.999854
0.999734
0.999553
0.999427
0.999363
0.999464
0.999712
1
1.00034
1.00064
1.00095
1.00112
1.00121
1.00133
1.00137
1.0014
1.00137
1.00145
1.00146
1.00143
1.00147
1.0015
1.00151
1.00144
1.00151
1.00148
1.00144
0.998005
0.998111
0.997996
0.997969
0.998005
0.998088
0.997987
0.998037
0.998158
0.998141
0.998125
0.998275
0.998325
0.998285
0.9984
0.998575
0.998664
0.998785
0.999125
0.999369
0.999499
0.999771
0.999942
0.999895
0.99977
0.999804
0.99962
0.999465
0.999522
0.999697
0.999791
1.00003
1.00043
1.00063
1.00082
1.00108
1.00126
1.00127
1.00134
1.00149
1.00146
1.00143
1.00153
1.00155
1.00146
1.00151
1.00156
1.00153
1.00145
1.00155
0.997874
0.997997
0.997918
0.997954
0.997948
0.998043
0.997945
0.997963
0.998026
0.998053
0.998084
0.998144
0.99833
0.998469
0.998576
0.998822
0.999007
0.999153
0.99925
0.999412
0.999535
0.99956
0.999675
0.999799
0.999918
0.999841
0.999869
0.999821
0.999742
0.999621
0.999686
0.999855
1.00001
1.0003
1.00059
1.00091
1.00108
1.00126
1.00144
1.00146
1.0015
1.00152
1.00155
1.00155
1.0015
1.00156
1.00154
1.00157
1.00152
1.00158
0.997876
0.997868
0.997874
0.998073
0.99795
0.997927
0.998012
0.998029
0.997899
0.997975
0.998122
0.998103
0.998246
0.998551
0.998833
0.998965
0.999311
0.999545
0.999524
0.999471
0.999533
0.99947
0.999401
0.999654
0.999847
0.99995
1.00004
1.00014
0.999904
0.999705
0.999679
0.999644
0.999681
0.999987
1.00042
1.00063
1.00094
1.00125
1.0014
1.0014
1.00153
1.00161
1.00151
1.00153
1.00163
1.0016
1.00149
1.00163
1.00163
1.00157
0.997808
0.997914
0.997882
0.997987
0.997927
0.99796
0.997958
0.998009
0.998031
0.997984
0.998086
0.998222
0.998348
0.99856
0.998915
0.999278
0.999452
0.999677
0.999784
0.999671
0.999475
0.99942
0.999449
0.999455
0.999665
1.00002
1.00019
1.00012
1.00009
0.999936
0.999666
0.999506
0.99962
0.99984
1.00004
1.00046
1.00084
1.00108
1.00125
1.00143
1.00154
1.00151
1.00158
1.00162
1.0016
1.00163
1.00161
1.00165
1.0016
1.00167
0.997791
0.998045
0.997917
0.997851
0.997933
0.998083
0.997933
0.997973
0.998155
0.998162
0.998118
0.998351
0.998631
0.998717
0.999018
0.999416
0.999605
0.999656
0.999785
0.999797
0.999552
0.999455
0.999503
0.999491
0.99962
0.9999
1.00008
1.00012
1.00016
1.00007
0.999759
0.999663
0.999683
0.999678
0.999858
1.00026
1.00062
1.0008
1.00115
1.00141
1.00143
1.00147
1.00164
1.00166
1.00154
1.00164
1.00172
1.00165
1.00155
1.00173
0.997998
0.998003
0.997918
0.998044
0.997953
0.998004
0.998039
0.998046
0.998056
0.998211
0.998392
0.998501
0.998762
0.999126
0.999282
0.999408
0.999661
0.999733
0.999637
0.999631
0.999747
0.999638
0.999534
0.999671
0.999721
0.999699
0.999832
1.0001
1.0001
1.00001
1.00008
0.99993
0.999683
0.999647
0.999852
0.999996
1.00022
1.00068
1.00102
1.00118
1.00142
1.00159
1.0016
1.0016
1.00168
1.00168
1.0016
1.00171
1.00168
1.00164
0.998098
0.997897
0.997905
0.998129
0.997908
0.997843
0.997965
0.99807
0.997949
0.998115
0.99852
0.998679
0.998899
0.999303
0.999594
0.999562
0.99956
0.99967
0.999546
0.999525
0.999668
0.999788
0.999777
0.999762
0.999791
0.999643
0.999733
0.999855
0.999978
1.00015
1.00023
1.00012
0.99987
0.999841
0.999755
0.999749
1.00008
1.00051
1.00081
1.00105
1.00145
1.00163
1.00158
1.00169
1.00181
1.00176
1.00163
1.00178
1.00181
1.00167
0.997922
0.998061
0.997921
0.997872
0.997881
0.998008
0.997832
0.997952
0.998178
0.998256
0.99844
0.998924
0.999254
0.999389
0.999652
0.999809
0.999623
0.999413
0.999559
0.999547
0.999528
0.99978
1.00001
0.99991
0.999711
0.999804
0.99966
0.999625
0.999913
1.00023
1.00024
1.00018
1.00025
0.999934
0.999658
0.999762
1
1.00015
1.00053
1.00106
1.00127
1.00138
1.00166
1.00177
1.00165
1.00178
1.00186
1.00178
1.00169
1.00186
0.997874
0.998073
0.997885
0.997824
0.997875
0.998076
0.997933
0.998005
0.998305
0.998507
0.998663
0.998974
0.999457
0.999565
0.999598
0.999714
0.999654
0.999467
0.999379
0.999545
0.999642
0.999736
0.999913
0.999954
0.999893
0.999747
0.999696
0.999704
0.999892
1.00004
1.00022
1.00042
1.0003
1.00007
0.999896
0.999874
0.999832
0.999969
1.00046
1.00079
1.00105
1.00132
1.00161
1.00169
1.00165
1.00179
1.00186
1.00182
1.00172
1.00187
0.998
0.997728
0.997762
0.998074
0.997829
0.997779
0.998095
0.998227
0.998151
0.998555
0.999052
0.999131
0.999314
0.999699
0.999682
0.999398
0.999507
0.99959
0.999404
0.999442
0.999754
0.999773
0.999696
0.999918
0.999984
0.999788
0.999762
0.999928
0.999836
0.999882
1.00027
1.00041
1.00027
1.00029
1.00028
0.999876
0.999762
1.00009
1.00027
1.00043
1.00099
1.00143
1.00144
1.00159
1.00192
1.00185
1.00167
1.00193
1.002
1.00174
0.997759
0.997702
0.997734
0.997909
0.997755
0.997778
0.99796
0.998216
0.998358
0.998667
0.9992
0.999474
0.999542
0.999596
0.999658
0.999498
0.999336
0.999476
0.99962
0.999608
0.99963
0.999738
0.999782
0.999738
0.999813
0.999983
1
0.999885
0.999895
1
1.00008
1.00017
1.00039
1.00051
1.00025
1.00002
0.999963
0.999897
0.999968
1.00031
1.00084
1.00116
1.00143
1.0017
1.00186
1.0019
1.00185
1.00193
1.00196
1.00195
0.997461
0.997941
0.997789
0.997483
0.997765
0.9981
0.997854
0.998052
0.998778
0.999055
0.999139
0.999619
0.999888
0.999525
0.999389
0.999523
0.99938
0.999278
0.999592
0.999806
0.999586
0.999625
0.999766
0.999643
0.999738
1.00003
1.00013
0.999978
1.00003
1.00008
0.999905
1.00015
1.00052
1.00048
1.00034
1.00038
1.00015
0.999731
0.999925
1.00036
1.00048
1.0008
1.00151
1.00173
1.00159
1.00189
1.00218
1.00189
1.00177
1.00216
0.997674
0.9977
0.99767
0.997735
0.997794
0.997966
0.998138
0.998367
0.998748
0.999206
0.999461
0.999513
0.999668
0.999639
0.999328
0.999226
0.999452
0.999498
0.999498
0.999646
0.999806
0.999617
0.99951
0.999745
0.999842
0.99991
1.00002
1.00026
1.00014
0.999902
1.00005
1.00021
1.00025
1.0004
1.00067
1.00054
1.00014
1.00005
1.0001
1.00006
1.00036
1.00087
1.00121
1.00146
1.00176
1.00188
1.00192
1.00204
1.00204
1.00195
0.997847
0.997362
0.997546
0.998073
0.997766
0.997694
0.998344
0.998769
0.998679
0.999127
0.999742
0.999564
0.999317
0.999519
0.999516
0.999217
0.999368
0.999717
0.999587
0.999581
0.999722
0.999696
0.999553
0.999682
0.999906
0.999843
1.00006
1.00023
1.00013
1.00005
1.00012
1.00012
1.00006
1.00047
1.00069
1.00044
1.00038
1.00042
1.00008
0.999878
1.00044
1.00087
1.0009
1.00134
1.00195
1.00191
1.00171
1.00215
1.00232
1.0019
0.997557
0.997798
0.997807
0.997676
0.997908
0.99823
0.998279
0.998703
0.99929
0.999413
0.999474
0.999686
0.99958
0.999235
0.999306
0.999561
0.999465
0.999451
0.999753
0.999624
0.999457
0.999595
0.99982
0.9997
0.999654
1.00007
1.00008
0.999977
1.0002
1.00034
1.00016
0.999997
1.00032
1.00041
1.00037
1.00067
1.00073
1.00028
1.00006
1.00022
1.0002
1.00032
1.001
1.00142
1.00146
1.00182
1.00213
1.00193
1.00196
1.00226
0.997508
0.9981
0.997829
0.99745
0.997943
0.998508
0.998364
0.998672
0.99956
0.999731
0.999387
0.999461
0.999659
0.999175
0.999063
0.99951
0.999614
0.999455
0.999496
0.999701
0.9995
0.999553
0.999785
0.99982
0.999856
0.999889
0.999958
0.999996
1.00023
1.0003
1.00013
1.00031
1.00034
1.00024
1.00043
1.00088
1.00079
1.00033
1.00042
1.00036
0.999994
1.00019
1.00099
1.0013
1.00132
1.00183
1.00227
1.002
1.00182
1.00229
0.998039
0.997399
0.99755
0.998125
0.997924
0.997959
0.998823
0.999294
0.999183
0.999563
0.999857
0.999363
0.999052
0.999405
0.999396
0.999242
0.99955
0.999754
0.999478
0.999423
0.999757
0.999686
0.999631
0.999935
1.00004
0.999769
0.999809
1.00016
1.00012
1.00006
1.00041
1.00041
1.0001
1.00027
1.00065
1.00057
1.00059
1.00098
1.00063
1.00003
1.00026
1.00056
1.00043
1.0009
1.00183
1.00183
1.00169
1.00228
1.00248
1.00183
0.997832
0.997355
0.997674
0.998184
0.998051
0.998135
0.998989
0.99955
0.999407
0.999407
0.999748
0.999477
0.999067
0.999232
0.999637
0.999463
0.999426
0.999611
0.999604
0.999447
0.999512
0.999776
0.999821
0.999832
0.999864
0.999943
0.999959
0.999947
1.00003
1.00033
1.00044
1.0003
1.00027
1.00044
1.00041
1.00035
1.00082
1.001
1.00058
1.0003
1.00046
1.00036
1.00031
1.00087
1.00159
1.00175
1.00179
1.00215
1.00244
1.00216
0.997129
0.998107
0.997922
0.997283
0.998176
0.999102
0.998704
0.99898
0.999942
0.999657
0.998935
0.999311
0.999556
0.999117
0.999186
0.999812
0.999513
0.999174
0.999501
0.999678
0.999434
0.999628
1.00002
0.999808
0.999756
1.00004
1.00002
0.999792
1.00015
1.00042
1.00023
1.00037
1.00071
1.00041
1.00012
1.00076
1.00095
1.00058
1.00081
1.00109
1.00032
0.999978
1.00089
1.00113
1.0008
1.0017
1.00257
1.00195
1.00183
1.00277
0.997538
0.997802
0.997698
0.997764
0.998321
0.998893
0.999131
0.999313
0.999621
0.999687
0.999282
0.999087
0.999386
0.999468
0.99936
0.999445
0.999627
0.999434
0.999387
0.999583
0.999793
0.999748
0.999753
0.99994
0.999943
0.999887
0.999872
1.00008
1.00013
1.00004
1.00026
1.00054
1.00049
1.00031
1.00051
1.00065
1.00059
1.00077
1.00108
1.0008
1.00039
1.00045
1.00058
1.00073
1.00115
1.00158
1.00201
1.00223
1.00222
1.00225
0.998074
0.996799
0.997415
0.998829
0.998297
0.998072
0.999581
1.00004
0.999012
0.999153
0.999926
0.999195
0.998722
0.99952
0.999744
0.999107
0.999178
0.999761
0.999453
0.999366
0.999772
0.999904
0.999681
0.999822
1.00004
0.999809
0.999975
1.00018
0.999996
1.00005
1.00047
1.00046
1.0002
1.00072
1.00087
1.0003
1.00053
1.00137
1.00101
1.00036
1.001
1.00105
1.00005
1.00048
1.00185
1.00162
1.00121
1.0025
1.00305
1.00189
0.997226
0.997627
0.997963
0.997915
0.998493
0.99905
0.999182
0.999502
0.999653
0.999323
0.999131
0.999409
0.99932
0.999166
0.999397
0.999511
0.999271
0.999294
0.999708
0.999644
0.999562
0.999754
0.999928
0.999783
0.999731
1.0001
1.00011
0.999952
1.00011
1.00034
1.00025
1.00017
1.00061
1.00075
1.00049
1.00059
1.00089
1.00081
1.00081
1.0012
1.00094
1.00047
1.0007
1.00093
1.00089
1.0015
1.00221
1.00194
1.00225
1.00285
0.996748
0.998529
0.998037
0.99713
0.998628
0.999952
0.998987
0.998832
1.00008
0.999702
0.998599
0.999171
1.00001
0.999224
0.998903
0.999524
0.999535
0.999154
0.999456
0.999922
0.99965
0.999674
0.999904
0.999835
0.999848
1.00001
1.00004
0.99997
1.00021
1.00026
0.999994
1.00042
1.00079
1.00047
1.00046
1.00108
1.00087
1.00024
1.00109
1.0017
1.00067
1.00028
1.00133
1.0011
1.0003
1.0015
1.00278
1.00201
1.00165
1.00314
0.998258
0.997118
0.997522
0.99886
0.998693
0.998602
0.999776
0.999824
0.998925
0.999162
0.999617
0.999156
0.999012
0.999666
0.99935
0.998868
0.999201
0.999626
0.999433
0.999427
0.999958
0.999841
0.999612
0.99991
1.00005
0.999849
0.999912
1.00028
1.00014
0.999959
1.00043
1.00053
1.0003
1.00066
1.00109
1.00072
1.00044
1.00116
1.00118
1.00074
1.00124
1.0015
1.00046
1.00046
1.00174
1.00149
1.00122
1.00265
1.00306
1.00172
0.998039
0.996611
0.997629
0.999377
0.998685
0.998309
0.999846
1.00021
0.998792
0.998771
0.999838
0.999417
0.998813
0.999382
0.999718
0.998976
0.998994
0.99964
0.999623
0.999519
0.999803
0.999975
0.999735
0.999798
0.999981
0.999904
1.0001
1.00019
0.999995
1.00017
1.00047
1.00032
1.00024
1.0009
1.00103
1.00038
1.00073
1.00137
1.00088
1.0006
1.00164
1.00161
1.0003
1.00063
1.00188
1.00154
1.00114
1.0025
1.00335
1.00232
0.99638
0.998782
0.998519
0.997073
0.998891
1.00043
0.998916
0.998735
1.00015
0.999496
0.99843
0.999336
0.999865
0.998908
0.998745
0.999674
0.999406
0.998985
0.999512
0.99988
0.999646
0.99961
0.999942
0.999818
0.999744
1.00011
1.00012
0.999965
1.00027
1.00037
1.00013
1.00037
1.0009
1.00059
1.00032
1.00123
1.00128
1.00039
1.0009
1.00198
1.00106
1.00041
1.00184
1.00165
1.00003
1.00154
1.00333
1.0017
1.00151
1.00394
0.997274
0.998553
0.998014
0.997666
0.99907
1.00002
0.999255
0.998925
0.999703
0.999674
0.998733
0.998983
0.999526
0.99909
0.998844
0.999294
0.999553
0.999223
0.999361
0.999804
0.999835
0.999761
0.999778
0.999874
0.999942
0.999946
1.00003
1.00019
1.00029
1.00019
1.00016
1.00059
1.00074
1.00041
1.0007
1.00123
1.00101
1.00062
1.00124
1.00166
1.00092
1.00102
1.0017
1.00128
1.00081
1.00153
1.00252
1.00248
1.00211
1.0028
0.999151
0.995785
0.997192
1.00056
0.998774
0.997586
1.00032
1.00064
0.998192
0.998652
1.00036
0.999099
0.99813
0.999322
0.99963
0.998777
0.999017
0.999908
0.999571
0.99932
0.999934
0.999967
0.999619
0.99984
1.00005
0.999837
1.00004
1.00037
1.00007
1.00004
1.00066
1.00048
1.00007
1.00088
1.00126
1.00044
1.00065
1.00196
1.00123
1.00007
1.00186
1.00259
1.00025
1.00049
1.00314
1.00186
1.00014
1.00341
1.00455
1.00124
0.996976
0.997386
0.998322
0.998665
0.999036
0.999218
0.999551
0.999619
0.999316
0.999129
0.999172
0.999254
0.998807
0.998783
0.999102
0.999215
0.999275
0.999433
0.999658
0.999665
0.999627
0.99973
0.999786
0.999837
0.999879
0.999992
1.00017
1.0002
1.0002
1.0004
1.00045
1.00039
1.00058
1.00082
1.00082
1.00082
1.00121
1.00133
1.00096
1.00123
1.00154
1.00146
1.00134
1.00147
1.00152
1.00177
1.00247
1.00215
1.00294
1.00395
0.995557
1.00047
0.99886
0.995837
0.999249
1.00182
0.998478
0.997908
1.0007
0.999849
0.997767
0.99877
0.99989
0.998477
0.998192
0.999602
0.999653
0.999092
0.999604
1.00007
0.999626
0.999533
0.99995
0.999844
0.999764
1.00013
1.00014
1.00001
1.00041
1.00043
1.00001
1.00047
1.00107
1.00047
1.00029
1.00165
1.00155
1.00016
1.00127
1.00264
1.00088
1.00011
1.00298
1.00265
0.999403
1.00188
1.00496
1.00186
1.00065
1.00515
0.999037
0.996752
0.99729
0.999667
0.999189
0.998619
1.00009
0.999962
0.998724
0.998992
0.999435
0.998899
0.998323
0.998893
0.999103
0.998923
0.999311
0.999815
0.999786
0.999556
0.999694
0.999806
0.999722
0.999835
0.999966
0.999969
1.0001
1.00028
1.00023
1.00029
1.00052
1.00049
1.00043
1.00077
1.00111
1.00087
1.00096
1.00161
1.00133
1.00092
1.00152
1.00217
1.00119
1.00118
1.00282
1.00207
1.0012
1.00397
1.00445
1.00135
0.999338
0.994327
0.997252
1.00192
0.998586
0.996958
1.00068
1.00112
0.99789
0.998265
1.00012
0.998693
0.997557
0.998851
0.999428
0.998622
0.999002
1.0001
0.999854
0.99939
0.999717
0.99978
0.999573
0.999829
1.00004
0.9999
1.00015
1.00042
1.00014
1.00025
1.00082
1.00049
1.0001
1.00111
1.00149
1.00044
1.00084
1.00238
1.00143
0.999989
1.00214
1.00312
1.00021
1.00063
1.00441
1.00278
0.999743
1.00416
1.00634
1.00201
0.994226
1.0005
0.999443
0.995675
0.999451
1.00174
0.998885
0.998102
1.00032
0.999655
0.997653
0.998437
0.999271
0.99848
0.998356
0.999494
0.999794
0.999397
0.9998
1.00007
0.999629
0.999472
0.999786
0.999869
0.999883
1.00013
1.00017
1.0001
1.00038
1.00047
1.00022
1.00048
1.00095
1.00056
1.00057
1.0015
1.00145
1.00058
1.00135
1.0025
1.00092
1.00048
1.00308
1.00279
1.00003
1.00233
1.00614
1.00172
1.00101
1.008
0.996722
1.00125
0.997962
0.995265
0.999661
1.00159
0.998529
0.998188
1.00029
0.999209
0.99748
0.998213
0.998852
0.998074
0.998347
0.999581
0.999698
0.999434
0.999894
1.00003
0.99954
0.999482
0.999786
0.999699
0.999801
1.00025
1.00026
1.00009
1.00048
1.00059
1.00017
1.00043
1.00108
1.00073
1.00055
1.00163
1.00176
1.00064
1.00132
1.0026
1.0012
1.00034
1.00305
1.00327
1.00029
1.00217
1.00634
1.00339
1.00131
1.00504
1.0013
0.990372
0.99579
1.00381
0.999217
0.996227
1.00092
1.00163
0.997623
0.997681
0.999719
0.998526
0.997091
0.99863
0.999629
0.998952
0.999311
1.00032
1.00007
0.999449
0.999652
0.999721
0.999446
0.999722
1.00007
1.00008
1.00028
1.00045
1.00014
1.0003
1.00083
1.00045
1.00015
1.00119
1.00157
1.00039
1.00091
1.00259
1.00128
0.999867
1.00235
1.0034
0.999716
1.00073
1.00599
1.00309
0.99835
1.00672
1.01046
0.998457
0.995284
0.995117
0.998011
1.00021
0.99825
0.999063
1.00046
0.999655
0.998061
0.998588
0.998404
0.997603
0.997592
0.998608
0.998853
0.999181
0.999924
1.00029
0.999879
0.999705
0.999735
0.99947
0.999335
0.999816
1.00012
1.00007
1.00024
1.00053
1.00029
1.00018
1.00057
1.00067
1.00037
1.00085
1.00148
1.00119
1.00091
1.00189
1.00183
1.00089
1.00129
1.00273
1.00166
1.00108
1.00344
1.00451
1.00171
1.00417
1.00775
1.00824
0.994196
1.00875
0.998775
0.992536
1.00023
1.00391
0.998233
0.998025
1.00095
0.999327
0.996246
0.997702
0.998894
0.997682
0.998043
1.00004
1.00032
0.999724
1.00017
1.00024
0.999338
0.999138
0.999519
0.999528
0.99981
1.00048
1.0004
1.00021
1.00067
1.00054
0.999785
1.00044
1.00133
1.00047
1.00036
1.00229
1.00196
0.999841
1.00146
1.00363
1.00023
0.999214
1.00459
1.00401
0.997445
1.00352
1.01114
1.00032
0.996375
1.02312

VECTORS velocity double
6.51011e-05 8.31762e-05 0
3.78855e-05 0.000170339 0
1.12356e-05 0.000123666 0
2.02049e-06 0.000155142 0
-5.4861e-06 0.00012885 0
-2.73771e-05 0.000157376 0
-3.98412e-05 0.00013704 0
-4.50009e-05 0.000146526 0
-5.41572e-05 0.000133866 0
-6.24356e-05 0.000136418 0
-6.83952e-05 0.00012036 0
-6.84435e-05 0.000122518 0
-7.12067e-05 0.000108292 0
-7.29178e-05 0.000100158 0
-6.82e-05 8.59355e-05 0
-6.1332e-05 8.29903e-05 0
-5.79132e-05 6.52354e-05 0
-4.91316e-05 5.55497e-05 0
-3.68803e-05 4.28021e-05 0
-3.09199e-05 3.48613e-05 0
-2.67764e-05 2.222e-05 0
-1.78907e-05 1.6861e-05 0
-1.43165e-05 9.60556e-06 0
-1.47058e-05 6.51779e-06 0
-1.16922e-05 1.47899e-06 0
-1.09228e-05 9.17447e-07 0
-1.35824e-05 -4.01452e-06 0
-1.33377e-05 -6.03626e-06 0
-1.53237e-05 -1.20098e-05 0
-2.17856e-05 -1.64364e-05 0
-2.50579e-05 -2.61305e-05 0
-2.96801e-05 -3.10436e-05 0
-3.89657e-05 -4.14305e-05 0
-4.51111e-05 -4.74973e-05 0
-4.69037e-05 -5.96588e-05 0
-5.22101e-05 -5.9912e-05 0
-5.49998e-05 -6.98213e-05 0
-5.26325e-05 -7.41399e-05 0
-4.94029e-05 -8.20512e-05 0
-4.95477e-05 -7.99384e-05 0
-4.49875e-05 -9.06653e-05 0
-3.73314e-05 -8.89238e-05 0
-3.17707e-05 -9.5435e-05 0
-2.90727e-05 -8.9674e-05 0
-2.01364e-05 -0.000103531 0
-2.95586e-06 -8.35615e-05 0
1.39725e-06 -0.000100154 0
5.99607e-06 -8.17831e-05 0
2.75276e-05 -0.000113953 0
4.47642e-05 -5.45758e-05 0
7.1014e-05 0.000244421 0
5.58784e-05 0.000480104 0
2.94352e-05 0.000403097 0
1.38179e-05 0.000442312 0
-1.8515e-05 0.000416441 0
-4.336e-05 0.000455206 0
-6.5636e-05 0.000414608 0
-7.75498e-05 0.000428652 0
-9.47005e-05 0.000408702 0
-0.000111351 0.000404774 0
-0.000120758 0.000368543 0
-0.000124766 0.000359035 0
-0.000126548 0.00033578 0
-0.000126976 0.000302836 0
-0.000120723 0.000266019 0
-0.000111898 0.000246023 0
-0.000101424 0.000206767 0
-8.93621e-05 0.000168667 0
-7.26088e-05 0.000134922 0
-5.81396e-05 0.000112075 0
-4.40515e-05 7.49061e-05 0
-3.1976e-05 5.44811e-05 0
-2.12061e-05 3.68333e-05 0
-1.33751e-05 2.32786e-05 0
-9.84893e-06 4.93992e-06 0
-9.5978e-06 3.62428e-06 0
-1.0926e-05 -1.47529e-05 0
-1.5988e-05 -2.48185e-05 0
-2.44135e-05 -3.80353e-05 0
-3.45735e-05 -5.46498e-05 0
-4.48541e-05 -8.34118e-05 0
-5.50414e-05 -9.71727e-05 0
-6.84031e-05 -0.000122135 0
-7.72561e-05 -0.000148639 0
-8.27799e-05 -0.000173397 0
-8.82485e-05 -0.000183699 0
-9.35547e-05 -0.000207074 0
-9.13866e-05 -0.000228314 0
-8.94858e-05 -0.000238855 0
-8.60936e-05 -0.000242806 0
-7.942e-05 -0.000267646 0
-6.61702e-05 -0.000267839 0
-5.58404e-05 -0.000278711 0
-4.72305e-05 -0.000268663 0
-3.11891e-05 -0.000297703 0
-1.49876e-05 -0.000270399 0
7.69023e-06 -0.000284782 0
1.93372e-05 -0.000265955 0
3.53436e-05 -0.000316486 0
4.56698e-05 -0.000160288 0
6.3924e-05 0.000409058 0
6.76474e-05 0.000741078 0
4.92712e-05 0.000675683 0
1.4563e-05 0.000695372 0
-2.88464e-05 0.000700802 0
-3.40803e-05 0.00068707 0
-5.52851e-05 0.000684561 0
-8.86441e-05 0.000675383 0
-0.000108284 0.000660432 0
-0.000112788 0.000643838 0
-0.000134146 0.000620499 0
-0.000149468 0.000587876 0
-0.000150909 0.000554644 0
-0.000148137 0.00052356 0
-0.000155005 0.000470508 0
-0.000151879 0.00042034 0
-0.000134729 0.000375433 0
-0.000125896 0.000320903 0
-0.000113202 0.00025909 0
-9.51518e-05 0.000209137 0
-7.43316e-05 0.000166758 0
-6.06824e-05 0.000117453 0
-4.59399e-05 7.70012e-05 0
-3.48291e-05 5.14144e-05 0
-2.79217e-05 2.44855e-05 0
-2.56205e-05 -6.29491e-06 0
-2.95619e-05 -2.9717e-05 0
-3.71308e-05 -5.07174e-05 0
-4.6426e-05 -8.2699e-05 0
-5.49836e-05 -0.000120482 0
-7.14833e-05 -0.000149218 0
-8.31092e-05 -0.00018354 0
-8.99523e-05 -0.000226333 0
-9.5091e-05 -0.000260613 0
-0.00010771 -0.000287863 0
-0.000107347 -0.00031823 0
-9.99355e-05 -0.000351084 0