# vtk DataFile Version 4.0
SiwiRVisFile
ASCII
DATASET STRUCTURED_POINTS
DIMENSIONS 25 25 1
ORIGIN 0 0 0
SPACING 1 1 1
POINT_DATA 625

SCALARS flags double 1
LOOKUP_TABLE default
1
1
1
1
1
1
1
1
1
1
1
1
1
1
1
1
1
1
1
1
1
1
1
1
1
1
1
1
1
1
1
1
1
1
1
1
1
1
1
1
1
1
1
1
1
1
1
1
1
1
1
1
1
1
1
1
1
1
1
1
1
1
1
1
1
1
1
1
1
1
1
1
1
1
1
1
1
1
1
1
1
1
1
1
1
1
1
1
1
1
1
1
1
1
1
1
1
1
1
1
1
1
1
1
1
1
1
1
1
1
1
1
1
1
1
1
1
1
1
1
1
1
1
1
1
1
1
1
1
1
1
1
1
1
1
1
1
1
1
1
1
1
1
1
1
1
1
1
1
1
1
1
1
1
1
1
1
1
1
1
1
1
1
1
1
1
1
1
1
1
1
1
1
1
1
1
1
1
1
1
1
1
1
1
1
1
1
1
1
1
1
1
1
1
1
1
1
1
1
1
1
1
1
1
1
1
1
1
1
1
1
1
1
1
1
1
1
1
1
1
1
1
1
1
1
1
1
1
1
1
1
1
1
1
1
1
1
1
1
1
1
1
1
1
1
1
1
1
1
1
1
1
1
1
1
1
1
1
1
1
1
1
1
1
1
1
1
1
1
1
1
1
1
1
1
1
1
1
1
1
1
1
1
1
1
1
1
1
1
1
1
1
1
1
1
1
1
1
1
1
1
1
1
1
1
1
1
1
1
1
1
1
1
1
1
1
1
1
1
1
1
1
1
1
1
1
1
1
1
1
1
1
1
1
1
1
1
1
1
1
1
1
1
1
1
1
1
1
1
1
1
1
1
1
1
1
1
1
1
1
1
1
1
1
1
1
1
1
1
1
1
1
1
1
1
1
1
1
1
1
1
1
1
1
1
1
1
1
1
1
1
1
1
1
1
1
1
1
1
1
1
1
1
1
1
1
1
1
1
1
1
1
1
1
1
1
1
1
1
1
1
1
1
1
1
1
1
1
1
1
1
1
1
1
1
1
1
1
1
1
1
1
1
1
1
1
1
1
1
1
1
1
1
1
1
1
1
1
1
1
1
1
1
1
1
1
1
1
1
1
1
1
1
1
1
1
1
1
1
1
1
1
1
1
1
1
1
1
1
1
1
1
1
1
1
1
1
1
1
1
1
1
1
1
1
1
1
1
1
1
1
1
1
1
1
1
1
1
1
1
1
1
1
1
1
1
1
1
1
1
1
1
1
1
1
1
1
1
1
1
1
1
1
1
1
1
1
1
1
1
1
1
1
1
1
1
1
1
1
1
1
1
1
1
1
1
1
1
1
1
1
1
1
1
1
1
1
1
1
1
1
1
1
1
1
1
1
1
1
1
1
1
1
1
1
1
1
1
1
1
1
1
1
1
1
1
1
1
1
1
1
1
1
1
1
1
1
1
1
1
1
1
1
1
1

SCALARS density double 1
LOOKUP_TABLE default
0.999756
0.999785
0.999899
0.999778
0.999705
0.999934
0.999939
0.999664
0.99981
1.00012
0.999824
0.999648
1.00008
1.00008
0.999643
0.999873
1.00023
0.99984
0.999701
1.0002
1.00011
0.999676
1.00001
1.00029
0.999819
1.00006
0.999525
0.999698
1.00012
0.999806
0.999592
0.999924
1.00001
0.99974
0.999786
0.999985
0.999923
0.999837
0.999882
0.999938
0.999972
0.999924
0.999849
0.999978
1.00009
0.999912
0.999835
1.00011
1.00011
0.999797
0.99974
0.999935
0.999787
0.999744
0.999916
0.999828
0.999715
0.999959
0.999948
0.999669
0.9999
1.00011
0.999744
0.999754
1.00017
0.999938
0.999641
1.00009
1.00019
0.999664
0.999882
1.00035
0.999884
0.999637
1.00025
0.999607
1.00013
0.999915
0.999494
0.999818
1.00011
0.99978
0.999623
0.999973
1.00003
0.999745
0.999784
1.00002
0.999977
0.999792
0.999867
1.00004
0.999979
0.999844
0.999929
1.00006
1.00001
0.999901
0.999951
1.00007
1.00004
0.999484
0.999733
1.00002
0.99978
0.99971
0.999989
0.999825
0.999709
1.00001
0.999914
0.999709
1
1.00003
0.999702
0.999919
1.00016
0.999752
0.999757
1.00032
1
0.999555
1.00016
1.00037
0.999617
0.999802
0.999398
0.999735
1.00012
0.999854
0.999564
0.999866
1.0001
0.999736
0.999632
1.00002
1.00007
0.999746
0.999787
1.0001
0.99995
0.999708
0.999954
1.00011
0.999884
0.999891
1.0001
0.999998
0.999927
1.00006
0.999233
1.00021
0.999754
1
0.9999
1.00008
0.999545
0.999671
1.00005
0.999827
0.999806
1.00002
0.99986
0.999822
1.00007
0.999894
0.999709
1
1
1
0.999997
1.00047
0.999772
0.999579
1.00046
0.999681
0.999729
0.999435
1
0.999754
0.999934
0.999706
0.999471
0.999894
1.00016
0.999811
0.999707
1.0001
1.00009
0.99965
0.999825
1.00018
1
1
1
1.00009
0.99972
1.00015
1.00022
0.999747
0.999917
0.998539
0.999304
1
0.999514
0.99909
1.00005
0.999976
1
0.999931
1.00006
0.999871
0.999878
0.999945
0.999854
1.00001
0.999993
1
1
1
0.999983
0.999516
1.00032
1.00051
0.99954
0.998923
0.999574
0.999612
1
0.999693
0.999599
0.999409
0.99962
0.999726
0.99972
0.999978
1.00014
0.999769
0.999759
1.00023
0.999956
0.999541
1.00022
1.00041
0.999568
1.00003
1.00066
0.999733
0.999632
1.00061
0.998856
1.00032
0.99929
0.998098
0.999522
1.00028
0.999097
0.999135
1.00021
0.999964
0.999599
0.999872
1.00011
0.999998
0.999914
0.999831
0.99995
1.00024
1.00005
0.999616
1.00023
1.00053
0.999765
0.999591
1.00051
1.00002
0.99852
0.998861
1.00004
0.999092
0.998841
0.999782
1
0.999664
0.99966
1
0.999859
1.00002
1.00007
0.999663
1.00001
1.00044
0.999602
0.999669
1.00081
1
0.999159
1.00066
1.0007
0.999031
0.999419
0.998119
0.999265
1.00028
0.998962
0.998305
0.999587
1.00015
0.998708
1
1.00025
1.00007
0.99973
0.999916
1.00012
1.00005
0.999899
0.999837
1.00011
1.00027
0.999925
0.999771
1.0002
1.00046
0.999819
0.998103
1.00066
0.999571
0.997673
0.999572
1.00039
0.998434
0.998823
0.999818
0.999977
0.999685
0.999989
0.999993
0.999869
1.0002
0.999884
0.999516
1.00056
1.00038
0.998948
1.00024
1.00132
0.999091
0.999072
1.00158
0.999354
0.999894
0.998912
0.998553
0.999433
0.999704
0.998855
0.998813
0.999886
1.00003
0.999561
0.999815
1.00027
0.999961
0.999682
1.00003
1.00017
0.999959
0.999811
1.00011
1.00005
1.00001
1.00029
0.999836
0.999722
1.00052
0.996893
0.998777
1.00134
0.998465
0.997409
1.00052
1
0.999411
0.999334
1.0002
1
0.999754
1.00009
0.999868
0.999978
1.00034
0.999379
0.999643
1.00145
0.999647
0.998346
1.00139
1.00141
0.997923
0.998185
0.999063
0.999582
0.998888
0.999008
0.999135
0.998881
1
0.9997
0.999831
1.00007
1
0.999633
1.00004
1.00031
0.999668
0.999675
1.00027
1.00018
0.999465
1.00029
1.00066
0.999157
0.999983
1.00148
0.99758
1.00211
0.999292
0.996205
0.999953
1.00123
0.997222
1
1.00048
1.00013
0.999101
1.00012
1.00044
0.999607
0.999798
1.00022
0.999702
1.00012
1
0.998129
1.00054
1.00227
0.998462
0.998141
1.00258
1.00091
0.997506
0.99809
1.00057
0.998731
0.997906
0.999916
1
0.999778
0.999967
0.999837
0.999918
1.00014
0.999886
0.999552
1.00022
1.00017
0.999565
1
1.00141
0.99927
0.998408
1.00211
1.00104
0.996936
0.999993
0.995183
0.99885
1.00198
0.998111
0.996933
1.00058
1
0.999139
0.999474
1.00079
0.999649
0.999259
1.00064
1.00029
0.999033
1
1
1
1.00157
0.999699
0.997652
1.0017
1.00236
0.9974
0.995078
1.0022
1.00003
0.995154
0.999346
1.00116
0.997914
0.99852
1.00054
1.00002
0.999843
0.999914
0.999899
0.999658
1.00043
1.00008
1
1
1
1
1
1
1
0.99871
1.00668
0.999009
1.00227
0.997639
0.995682
0.99962
1.00054
0.99798
0.999115
1.00073
0.999789
0.998926
1.00028
1.00093
0.998906
0.999336
1.00145
1
1
1
1
1.0049
1.01073
1.00158
1.00144
1.0079
1.00236
0.989832
0.99671
1.00467
1
0.996439
1.00061
1.00053
0.998451
1.00021
1
0.999837
0.999844
1.00091
0.999081
0.998728
1.0023
0.997709
0.999175
1.00981
1.00583
0.995194
1.00579
1.01459
0.998502
0.993618
0.995882
1.00023
0.999214
0.995735
0.997988
0.999664
0.999055
1.00006
1.0021
1.00123
1.00691
1
1.00081
1.00121
0.998341
1
0.999497
1.00339
1.00617
1.00167
1.0008
1.00791
1.00704
1.0039
0.993908
1.00949
0.998635
0.991916
0.99968
1.00067
0.997058
0.998456
1.0013
1.00126
1.00307
1.00829
1.00219
0.994959
0.999807
1.00311
1.00092
1.00638
1.00568
0.995284
1.00259
1.01483
1.00047
0.99291
1.0241

VECTORS velocity double
-2.85053e-07 4.57859e-06 0
-0.000143305 8.36433e-05 0
-0.000264573 5.93313e-06 0
-0.000260981 -1.87195e-05 0
-0.000249268 2.28245e-05 0
-0.000442048 9.80087e-05 0
-0.0005516 -2.0156e-05 0
-0.000493338 -2.66622e-05 0
-0.000500389 4.37746e-05 0
-0.000604728 1.36e-05 0
-0.000549311 -4.73547e-05 0
-0.000471952 -8.09586e-06 0
-0.000438576 -5.56154e-06 0
-0.000434911 -1.23473e-05 0
-0.000404618 2.01159e-06 0
-0.000392689 -1.04422e-05 0
-0.000352569 -9.36125e-06 0
-0.000382618 2.3556e-05 0
-0.000428526 3.38253e-05 0
-0.000363985 -6.48595e-05 0
-0.000226769 5.298e-06 0
-0.000246163 4.28478e-05 0
-0.000207773 -4.37807e-06 0
-9.48896e-05 -3.22527e-05 0
2.0482e-06 2.61007e-05 0
-8.78273e-05 0.000135545 0
-0.000402652 0.000354842 0
-0.000614178 9.08663e-05 0
-0.000776585 4.83424e-05 0
-0.00113125 0.000278364 0
-0.00138758 0.000248209 0
-0.00133921 -1.27367e-05 0
-0.00149676 6.60012e-05 0
-0.00174179 0.000149803 0
-0.00167321 -6.12222e-05 0
-0.00143112 -0.000158014 0
-0.00145902 -9.9508e-06 0
-0.00140846 -0.000101669 0
-0.00111343 -0.000145081 0
-0.00100573 3.21808e-05 0
-0.0012115 3.19896e-05 0
-0.00119964 -8.29391e-05 0
-0.00102731 2.56718e-06 0
-0.00103152 6.11184e-05 0
-0.00112347 -0.000189984 0
-0.000878586 -0.000231531 0
-0.00053152 -0.000113082 0
-0.000389654 -0.000125656 0
-0.000297218 -0.000269563 0
-7.39852e-05 -0.000127046 0
-0.000124203 0.00044603 0
-0.000324024 0.000533841 0
-0.00072379 0.000516132 0
-0.00142939 0.000471934 0
-0.00169801 0.000509943 0
-0.00167738 0.000286828 0
-0.001989 0.000269342 0
-0.00246356 0.000312666 0
-0.00241251 8.07494e-05 0
-0.00230311 -0.000137472 0
-0.00235351 -0.000232834 0
-0.00210877 -0.000230863 0
-0.00175096 -0.00028636 0
-0.001723 -0.000259862 0
-0.00161786 -4.17137e-05 0
-0.00139618 6.19783e-05 0
-0.00147054 -1.0954e-05 0
-0.0016645 -5.13046e-05 0
-0.00143897 -6.87059e-05 0
-0.00124772 -0.000149991 0
-0.00126817 -0.000433312 0
-0.000979693 -0.000507809 0
-0.000435243 -0.000283622 0
-0.000216197 -0.000291557 0
-8.2969e-05 -0.00029977 0
6.17741e-05 0.00055355 0
-0.00044965 0.001043 0
-0.00141197 0.00125469 0
-0.00183777 0.000861082 0
-0.00167025 0.000460659 0
-0.00189591 0.000569954 0
-0.00247409 0.000740488 0
-0.0028012 0.000558033 0
-0.00283914 2.87112e-05 0
-0.00294158 -0.00015744 0
-0.00288065 -0.000369919 0
-0.00242657 -0.000622621 0
-0.00200303 -0.000512098 0
-0.00190367 -0.00035897 0
-0.00171093 -0.000244032 0
-0.001455 -3.87853e-05 0
-0.00150445 0.000150986 0
-0.00178579 -1.20063e-05 0
-0.00171652 -0.000296344 0
-0.00133776 -0.000393912 0
-0.00113999 -0.000543992 0
-0.00110957 -0.000892081 0
-0.000687925 -0.0008907 0
-0.000152068 -0.000623424 0
6.13207e-05 -0.00041368 0
-0.00015867 0.000695316 0
-0.00117069 0.00236122 0
-0.00176328 0.00158011 0
-0.00131959 0.000638551 0
-0.00127858 0.000555706 0
-0.00202339 0.00128572 0
-0.00253904 0.00108006 0
-0.00282173 0.000796074 0
-0.00331673 0.000339747 0
-0.00335604 -0.000337134 0
-0.0028382 -0.000775065 0
-0.00257274 -0.00092961 0
-0.00230949 -0.00088401 0
-0.00176357 -0.000679908 0
-0.00146056 -0.000383794 0
-0.00150871 -0.000118789 0
-0.00126971 0.000136276 0
-0.000995333 9.74776e-05 0
-0.00125659 -0.000199063 0
-0.00148816 -0.00075432 0
-0.00116106 -0.000669783 0
-0.000905783 -0.000866098 0
-0.000779 -0.00124903 0
-0.000434323 -0.00114003 0
-4.08256e-05 -0.000290457 0
-0.00038955 0.00151173 0
-0.000966156 0.00297835 0
-0.00100487 0.00146375 0
-0.000765158 0.000181497 0
-0.000678782 0.000933784 0
-0.00111671 0.0019811 0
-0.00206652 0.00190517 0
-0.00324 0.00132939 0
-0.00370942 0.000496488 0
-0.00329851 -0.000662744 0
-0.00269079 -0.00121603 0
-0.00244303 -0.00122509 0
-0.00216792 -0.00128586 0
-0.00169852 -0.0010667 0
-0.00119362 -0.000707725 0
-0.000817094 -0.000366037 0
-0.000582387 -5.97783e-05 0
-0.00046779 4.5532e-05 0
-0.000444382 -5.80895e-05 0
-0.000755152 -0.000501864 0
-0.00101973 -0.000903764 0
-0.000737375 -0.0013845 0
-0.000437271 -0.00136137 0
-0.000531694 -0.00140495 0
-0.000249344 -0.000815386 0
-0.000106558 0.00226033 0
-0.00017304 0.00260768 0
-4.82203e-05 0.00153505 0
0 0 0
-0.000188166 0.00133699 0
-0.000865366 0.00257312 0
-0.0020936 0.00341005 0
-0.00304765 0.00213393 0
-0.0028387 0.000143105 0
-0.00265765 -0.00100971 0
-0.0027114 -0.00154493 0
-0.00225336 -0.00166346 0
-0.00170446 -0.00158917 0
-0.00160328 -0.0014381 0
-0.00127895 -0.00125917 0
-0.00065908 -0.000746648 0
-0.00015431 -0.00038309 0
0 0 0
0 0 0
0 0 0
-0.000479749 -0.000583301 0
-0.000786491 -0.00173235 0
-0.00029611 -0.00147089 0
-5.51762e-05 -0.00111619 0
-2.35112e-05 -0.00111757 0
0.000407418 0.00182559 0
0.000224017 0.00311803 0
-0.000149137 0.00146298 0
0 0 0
-0.000102134 0.00167904 0
-0.00103734 0.00384841 0
-0.00180419 0.00400473 0
-0.00171498 0.00235148 0
-0.00147061 -5.91046e-05 0
-0.0014591 -0.00109967 0
-0.00164278 -0.00153734 0
-0.00180291 -0.0018348 0
-0.00190119 -0.00173697 0
-0.00177081 -0.00184036 0
-0.00124263 -0.00167237 0
-0.000620446 -0.00130244 0
-0.000120739 -0.000824263 0
0 0 0
0 0 0
0 0 0
-4.65474e-05 -0.000400676 0
-0.000429051 -0.00130559 0
-0.000482075 -0.00226098 0
0.000123854 -0.00175397 0
0.000279935 -0.000872654 0
-0.000224276 0.00152829 0
-0.000346646 0.0037584 0
-7.90074e-05 0.00111954 0
0 0 0
-0.000113599 0.00200051 0
-0.00067337 0.00512346 0
-0.000749175 0.00360925 0
-0.000229095 0.00171409 0
0 0 0
-0.000440677 -0.000625621 0
-0.00122829 -0.00103594 0
-0.00197105 -0.00149218 0
-0.00214539 -0.00184022 0
-0.00155779 -0.00224531 0
-0.0012282 -0.00195659 0
-0.00136375 -0.00191377 0
-0.000654058 -0.00136324 0
0 0 0
0 0 0
0 0 0
8.4518e-05 -0.000226024 0
0.000180353 -0.00090266 0
-8.40509e-05 -0.00215934 0
-0.000455083 -0.00205263 0
-0.000211214 -0.000603939 0
-0.00028156 0.00229355 0
-5.67477e-05 0.00292534 0
0.000253821 0.00119242 0
0 0 0
-0.000826293 0.00285313 0
-0.001756 0.00488945 0
-0.00149338 0.00367222 0
-0.00108677 0.00128713 0
-0.000990128 0.000100362 0
-0.00100468 -9.16471e-05 0
-0.00149105 -4.07432e-05 0
-0.00211548 -0.001156 0
-0.00211101 -0.00206738 0
-0.00223772 -0.00231702 0
-0.00228984 -0.00220817 0
-0.00196233 -0.00224577 0
-0.00199716 -0.00148666 0
-0.00185518 -0.000792199 0
-0.000987578 -0.000270975 0
-0.000764768 -8.9941e-05 0
-0.000575462 -0.000377515 0
0.000101044 -0.00189551 0
0.00035741 -0.00144199 0
-0.000349412 -0.00152175 0
-0.000339647 -0.0015997 0
0.000306144 0.00227124 0
0.000630962 0.00230074 0
0.000299223 0.00174662 0
-0.00132679 0.00130113 0
-0.00212929 0.00377177 0
-0.00218515 0.00484968 0
-0.00262023 0.00386804 0
-0.00215547 0.000646553 0
-0.00114241 -0.000384562 0
-0.00151548 0.000379863 0
-0.00221658 0.000297557 0
-0.00166686 -0.00128052 0
-0.00153934 -0.00183648 0
-0.00264424 -0.001802 0
-0.00325484 -0.0021939 0
-0.0030251 -0.00221802 0
-0.00323408 -0.00113334 0
-0.00372732 -0.00136398 0
-0.00291767 -0.000860881 0
-0.00167367 -0.000677536 0
-0.00106371 -0.000535965 0
-0.00115289 -0.00218467 0
-0.000503939 -0.00162791 0
0.000334472 -0.00124242 0
0.000327494 -0.00149313 0
0.000443285 0.00115442 0
0.000129197 0.00355558 0
-0.000907135 0.00248849 0
-0.00143666 0.00220317 0
-0.00259487 0.00454544 0
-0.00368616 0.00559168 0
-0.00182547 0.00207832 0
0 0 0
-0.000921626 0.0001371 0
-0.000934428 0.000385117 0
0 0 0
-0.00105053 -0.000716773 0
-0.00255183 -0.00094193 0
-0.00274842 -0.00142586 0
-0.00285127 -0.00169604 0
-0.00401492 -0.00170656 0
-0.00424063 -0.00154873 0
-0.00360935 -0.00115498 0
-0.00385208 -0.0013535 0
-0.00365703 -0.0022496 0
-0.00194215 -0.00148339 0
-0.00148339 -0.00173811 0
-0.00136171 -0.00301204 0
-0.00032843 -0.00275452 0
0.000324297 -0.000717137 0
-0.000642468 0.00141004 0
-0.000806439 0.00387564 0
-0.000640089 0.00338869 0
-0.00249015 0.00347806 0
-0.00374313 0.00510182 0
-0.00209163 0.00435133 0
-0.000755192 0.000381327 0
-0.0018513 0.000365757 0
-0.00131742 -0.000186801 0
0 0 0
-0.00048421 0.000467033 0
-0.00163593 0.00059085 0
-0.00239178 -0.000221046 0
-0.00257617 -0.00123794 0
-0.00313256 -0.000935427 0
-0.00429049 -0.000934444 0
-0.00450888 -0.00173601 0
-0.00397352 -0.00124905 0
-0.00379711 -0.00144186 0
-0.00415843 -0.00247545 0
-0.00322964 -0.00273173 0
-0.00158756 -0.00258573 0
-0.00108203 -0.00258962 0
-0.00192839 -0.00310382 0
-0.000921388 -0.00147743 0
-0.000252531 0.00278778 0
-0.000349275 0.00251977 0
-0.000889936 0.00452756 0
-0.00287557 0.00620714 0
-0.0034052 0.00451678 0
-0.0031262 0.00277729 0
-0.00474029 0.00211015 0
-0.0048574 -4.28458e-06 0
-0.00323049 -0.00162875 0
-0.00301913 -0.000426436 0
-0.00314943 0.00132175 0
-0.00271396 0.000992663 0
-0.0020065 -0.000195579 0
-0.00287155 -0.000376934 0
-0.00369008 -0.000388738 0
-0.00312684 -0.000879393 0
-0.00362953 -0.000824235 0
-0.00517684 -0.00172784 0
-0.00417483 -0.00234686 0
-0.00335824 -0.00190133 0
-0.00401602 -0.00350583 0
-0.00347653 -0.00514791 0
-0.00112139 -0.00258487 0
-0.000593614 -0.00254129 0
-0.000181137 -0.00344173 0
0.000509133 0.00240819 0
-0.000570306 0.00402963 0
-0.00250579 0.00598436 0
-0.00245488 0.00630708 0
-0.00225053 0.00491292 0
-0.00368554 0.00415948 0
-0.00428228 0.00288162 0
-0.00470211 -0.000410104 0
-0.00481053 -0.00221884 0
-0.00415844 -0.000991811 0
-0.00365257 0.000960681 0
-0.00289585 1.66918e-05 0
-0.00234614 -0.000498998 0
-0.00241916 0.000171392 0
-0.00250263 -0.000203056 0
-0.00273173 -0.000741707 0
-0.00348694 0.000297922 0
-0.00454484 -0.00144418 0
-0.00447089 -0.00239767 0
-0.00361304 -0.00306739 0
-0.00273949 -0.00303933 0
-0.0039272 -0.00499278 0
-0.00284428 -0.00520543 0
-0.000281399 -0.00413246 0
0.000897967 -0.00250726 0
-4.04215e-05 0.00168466 0
-0.00138748 0.00713474 0
-0.00221113 0.00638232 0
-0.00164397 0.00475281 0
-0.00219214 0.00637169 0
-0.00335048 0.00587405 0
-0.00177528 0.000891865 0
0 0 0
-0.00174091 -0.00122993 0
-0.00284247 -0.00113821 0
-0.00132658 -0.000328395 0
-0.000924793 -0.000347661 0
-0.00159156 4.71835e-05 0
-0.00120714 -0.000275378 0
-0.00102098 7.06871e-06 0
-0.00280617 0.000597034 0
-0.00272736 2.83828e-05 0
-0.00147894 -0.00108803 0
-0.00356266 -0.000793464 0
-0.00593925 -0.00503256 0
-0.00360231 -0.00354153 0
-0.00284328 -0.00375699 0
-0.00331209 -0.00682032 0
-0.00299284 -0.0071907 0
-0.000427052 -0.00219107 0
-0.00158178 0.00405731 0
-0.00171452 0.00588359 0
-9.89873e-05 0.00612589 0
-0.00192196 0.00685342 0
-0.00264251 0.00585159 0
-0.000215937 0.00363564 0
0.000648479 0.00047956 0
0 0 0
0.000265614 -0.000359579 0
7.92258e-05 -0.00101197 0
-0.000182659 -0.00120851 0
0 0 0
-0.000169 0.000211122 0
-0.000779788 -8.47463e-05 0
-0.00123183 0.000481141 0
-0.00117838 0.00106368 0
-0.000757429 -0.000711773 0
-0.00113674 -7.52013e-05 0
-0.00144872 0.000321832 0
-0.00335684 -0.00277844 0
-0.00474109 -0.00450951 0
-0.00370242 -0.00652966 0
-0.00176019 -0.0048158 0
-0.0039727 -0.0066657 0
-0.00200211 -0.0061169 0
0.000732124 0.00541183 0
0.000591521 0.00435697 0
-0.00182032 0.00755356 0
-0.00404919 0.00910242 0
-0.00297652 0.00419227 0
-0.00105514 0.00127688 0
-0.000238834 0.00126279 0
0 0 0
-0.000233147 -0.000404976 0
-0.000442515 -0.000906349 0
-0.00101673 -0.000571854 0
-0.000728683 -0.00028218 0
0.000240309 -0.000214803 0
-0.000278686 0.00104371 0
-0.000555839 0.000850238 0
0.000456115 -0.000139911 0
0.000182965 -0.000418285 0
-0.000675262 0.000301136 0
0 0 0
-0.000363125 0.000319233 0
-0.00335568 -0.0028752 0
-0.00670649 -0.00875654 0
-0.00339102 -0.00573072 0
-0.000346809 -0.00706778 0
0.00124232 -0.00803291 0
0.000872175 0.00293383 0
-0.0022492 0.00998918 0
-0.00595186 0.00986704 0
-0.00383395 0.00603317 0
-0.00212822 0.003813 0
-0.00263585 0.00128543 0
-0.00128533 -0.00111064 0
0 0 0
-0.000519023 0.000551004 0
-0.000909232 -0.0010182 0
-0.00105058 -0.000391015 0
-0.00165931 -0.000678432 0
-0.00185805 -0.000353477 0
-0.000396758 1.60137e-05 0
0.000844188 0.000370752 0
0.000322744 0.000313949 0
4.81134e-05 0.000112888 0
9.95671e-06 -3.10272e-05 0
0 0 0
-0.000163771 0.000623442 0
9.17614e-05 -0.000154554 0
-0.00341198 -0.00413718 0
-0.00601038 -0.00968914 0
-0.00355237 -0.0131916 0
0.000933785 -0.00533446 0
-0.00197409 0.00448221 0
-0.00471318 0.0138271 0
-0.00387734 0.00923246 0
-0.00502706 0.00577369 0
-0.00921875 0.00471317 0
-0.00911064 0.000167945 0
-0.00361487 -0.00499227 0
0 0 0
-0.00154152 0.00184873 0
-0.00307963 -2.1962e-05 0
-0.00184694 -0.00141132 0
-0.000795355 -0.000103271 0
-0.00122668 -0.000131231 0
-0.00119023 -0.00137524 0
-0.000395478 -0.00093804 0
-2.01309e-06 0.00146732 0
0 0 0
0 0 0
0 0 0
-0.000314095 6.41772e-05 0
0.000944453 0.00019881 0
0.00016491 -0.000238674 0
-0.00585538 -0.00591922 0
-0.0103079 -0.0166601 0
-0.00344104 -0.00954861 0
-0.00254528 0.01116 0
-0.00233435 0.00892674 0
-0.00142395 0.0102928 0
-0.00793266 0.0137245 0
-0.00842255 0.00313582 0
-0.00526016 -0.00242996 0
-0.00831695 -0.00620755 0
-0.00866475 -0.00247764 0
-0.0024893 -0.000612095 0
-0.00111478 0.00184208 0
-0.00376761 -0.00229562 0
-0.00322946 -0.000797188 0
-0.000719912 -0.00180278 0
-0.000266658 0.000122134 0
-0.00167228 -0.00112811 0
-0.00104545 8.09037e-05 0
0 0 0
0 0 0
0 0 0
0 0 0
0 0 0
0 0 0
0 0 0
-0.00441289 -0.0109645 0
-0.00404262 -0.0210275 0
0.00364468 0.00956429 0
-0.000992815 0.0132734 0
-0.0107506 0.0149966 0
-0.0104 0.0138333 0
-0.00510293 0.00085233 0
-0.00369021 -0.00164349 0
-0.00785802 -0.00207471 0
-0.0102508 -0.0051696 0
-0.00711775 -0.00411859 0
-0.00399185 0.00126377 0
-0.00252655 -0.00124313 0
-0.00196062 -0.00219422 0
-0.000252201 -0.00440651 0
0.00187312 0.000158724 0
0.00129918 0.000905429 0
-0.000101969 -0.00133857 0
0 0 0
0 0 0
0 0 0
0 0 0
-0.00461085 0.00337968 0
-0.0106636 0.000231819 0
-0.00842477 -0.00179772 0
0.0035265 -0.0165054 0
0.00696185 -0.0173396 0
-0.00268419 0.00770341 0
-0.0133489 0.0293918 0
-0.0103055 0.0120922 0
0.000172849 0.00541232 0
0 0 0
-0.00169814 0.00038794 0
-0.00124244 0.000329147 0
-0.0027457 -0.00406394 0
-0.00559215 -0.00549811 0
-0.00269851 -0.00507277 0
0 0 0
0.000278665 -0.00457617 0
-0.00165755 -0.00262212 0
-0.00209759 -0.00395699 0
0.00200889 0.00100312 0
-0.000417958 0.0025823 0
-0.00430608 -5.28582e-05 0
-0.00188505 -0.00202937 0
-0.000209907 0.00126762 0
-0.00692125 0.00552618 0
-0.00818961 0.00599346 0
-0.00412569 0.00185619 0
-0.00579728 -0.00460307 0
-0.0071697 -0.0314001 0
-0.00210437 -0.0101753 0
-0.00630341 0.0211328 0
-0.00709908 0.0230535 0
0.00593267 0.00237813 0
0.0161452 -1.55195e-05 0
0.015653 0.00402473 0
0.0120399 -0.000609576 0
0.0157515 -0.000978267 0
0.0167777 -0.00102457 0
0.0102357 -0.00160522 0
0.00570918 -0.0065914 0
0.010837 -0.00381275 0
0.00795553 0.000757542 0
0 0 0
0.00237349 -0.00669702 0
0.00475701 -0.00017771 0
0.00214195 0.00724042 0
0 0 0
0.00325739 -0.00570704 0
0.00551856 0.00274433 0
0.00337291 0.00922242 0
0.00637808 0.000465894 0
0.0118302 0.00106789 0
0.00734178 0.000411335 0
-0.00620591 -0.0222592 0
-0.00593215 -0.0223572 0
0.0234901 0.0152761 0
0.0515381 0.00363329 0
0.0541479 -0.00192052 0
0.0489118 -0.00170582 0
0.0523568 0.00383646 0
0.0560115 -0.00135109 0
0.0525512 -0.00110351 0
0.0511723 7.46976e-05 0
0.0532306 0.00116394 0
0.0520614 -0.00200124 0
0.0435171 -0.00378717 0
0.0438438 0.0038368 0
0.0495186 -0.00024845 0
0.0440631 -0.00359136 0
0.0385239 -0.00021217 0
0.0440185 0.00367946 0
0.0497756 -0.000187054 0
0.0438266 -0.00384433 0
0.0402799 0.00157404 0
0.0486942 0.00407218 0
0.0521843 -0.00198982 0
0.0479898 -0.000552852 0
0.0525268 0.00356895 0
0.0523945 -0.0037152 0
0.024326 -0.0158179 0


