# vtk DataFile Version 4.0
SiwiRVisFile
ASCII
DATASET STRUCTURED_POINTS
DIMENSIONS 50 50 1
ORIGIN 0 0 0
SPACING 1 1 1
POINT_DATA 2500


SCALARS flags double 1
LOOKUP_TABLE default
1
1
1
1
1
1
1
1
1
1
1
1
1
1
1
1
1
1
1
1
1
1
1
1
1
1
1
1
1
1
1
1
1
1
1
1
1
1
1
1
1
1
1
1
1
1
1
1
1
1
1
1
1
1
1
1
1
1
1
1
1
1
1
1
1
1
1
1
1
1
1
1
1
1
1
1
1
1
1
1
1
1
1
1
1
1
1
1
1
1
1
1
1
1
1
1
1
1
1
1
1
1
1
1
1
1
1
1
1
1
1
1
1
1
1
1
1
1
1
1
1
1
1
1
1
1
1
1
1
1
1
1
1
1
1
1
1
1
1
1
1
1
1
1
1
1
1
1
1
1
1
1
1
1
1
1
1
1
1
1
1
1
1
1
1
1
1
1
1
1
1
1
1
1
1
1
1
1
1
1
1
1
1
1
1
1
1
1
1
1
1
1
1
1
1
1
1
1
1
1
1
1
1
1
1
1
1
1
1
1
1
1
1
1
1
1
1
1
1
1
1
1
1
1
1
1
1
1
1
1
1
1
1
1
1
1
1
1
1
1
1
1
1
1
1
1
1
1
1
1
1
1
1
1
1
1
1
1
1
1
1
1
1
1
1
1
1
1
1
1
1
1
1
1
1
1
1
1
1
1
1
1
1
1
1
1
1
1
1
1
1
1
1
1
1
1
1
1
1
1
1
1
1
1
1
1
1
1
1
1
1
1
1
1
1
1
1
1
1
1
1
1
1
1
1
1
1
1
1
1
1
1
1
1
1
1
1
1
1
1
1
1
1
1
1
1
1
1
1
1
1
1
1
1
1
1
1
1
1
1
1
1
1
1
1
1
1
1
1
1
1
1
1
1
1
1
1
1
1
1
1
1
1
1
1
1
1
1
1
1
1
1
1
1
1
1
1
1
1
1
1
1
1
1
1
1
1
1
1
1
1
1
1
1
1
1
1
1
1
1
1
1
1
1
1
1
1
1
1
1
1
1
1
1
1
1
1
1
1
1
1
1
1
1
1
1
1
1
1
1
1
1
1
1
1
1
1
1
1
1
1
1
1
1
1
1
1
1
1
1
1
1
1
1
1
1
1
1
1
1
1
1
1
1
1
1
1
1
1
1
1
1
1
1
1
1
1
1
1
1
1
1
1
1
1
1
1
1
1
1
1
1
1
1
1
1
1
1
1
1
1
1
1
1
1
1
1
1
1
1
1
1
1
1
1
1
1
1
1
1
1
1
1
1
1
1
1
1
1
1
1
1
1
1
1
1
1
1
1
1
1
1
1
1
1
1
1
1
1
1
1
1
1
1
1
1
1
1
1
1
1
1
1
1
1
1
1
1
1
1
1
1
1
1
1
1
1
1
1
1
1
1
1
1
1
1
1
1
1
1
1
1
1
1
1
1
1
1
1
1
1
1
1
1
1
1
1
1
1
1
1
1
1
1
1
1
1
1
1
1
1
1
1
1
1
1
1
1
1
1
1
1
1
1
1
1
1
1
1
1
1
1
1
1
1
1
1
1
1
1
1
1
1
1
1
1
1
1
1
1
1
1
1
1
1
1
1
1
1
1
1
1
1
1
1
1
1
1
1
1
1
1
1
1
1
1
1
1
1
1
1
1
1
1
1
1
1
1
1
1
1
1
1
1
1
1
1
1
1
1
1
1
1
1
1
1
1
1
1
1
1
1
1
1
1
1
1
1
1
1
1
1
1
1
1
1
1
1
1
1
1
1
1
1
1
1
1
1
1
1
1
1
1
1
1
1
1
1
1
1
1
1
1
1
1
1
1
1
1
1
1
1
1
1
1
1
1
1
1
1
1
1
1
1
1
1
1
1
1
1
1
1
1
1
1
1
1
1
1
1
1
1
1
1
1
1
1
1
1
1
1
1
1
1
1
1
1
1
1
1
1
1
1
1
1
1
1
1
1
1
1
1
1
1
1
1
1
1
1
1
1
1
1
1
1
1
1
1
1
1
1
1
1
1
1
1
1
1
1
1
1
1
1
1
1
1
1
1
1
1
1
1
1
1
1
1
1
1
1
1
1
1
1
1
1
1
1
1
1
1
1
1
1
1
1
1
1
1
1
1
1
1
1
1
1
1
1
1
1
1
1
1
1
1
1
1
1
1
1
1
1
1
1
1
1
1
1
1
1
1
1
1
1
1
1
1
1
1
1
1
1
1
1
1
1
1
1
1
1
1
1
1
1
1
1
1
1
1
1
1
1
1
1
1
1
1
1
1
1
1
1
1
1
1
1
1
1
1
1
1
1
1
1
1
1
1
1
1
1
1
1
1
1
1
1
1
1
1
1
1
1
1
1
1
1
1
1
1
1
1
1
1
1
1
1
1
1
1
1
1
1
1
1
1
1
1
1
1
1
1
1
1
1
1
1
1
1
1
1
1
1
1
1
1
1
1
1
1
1
1
1
1
1
1
1
1
1
1
1
1
1
1
1
1
1
1
1
1
1
1
1
1
1
1
1
1
1
1
1
1
1
1
1
1
1
1
1
1
1
1
1
1
1
1
1
1
1
1
1
1
1
1
1
1
1
1
1
1
1
1
1
1
1
1
1
1
1
1
1
1
1
1
1
1
1
1
1
1
1
1
1
1
1
1
1
1
1
1
1
1
1
1
1
1
1
1
1
1
1
1
1
1
1
1
1
1
1
1
1
1
1
1
1
1
1
1
1
1
1
1
1
1
1
1
1
1
1
1
1
1
1
1
1
1
1
1
1
1
1
1
1
1
1
1
1
1
1
1
1
1
1
1
1
1
1
1
1
1
1
1
1
1
1
1
1
1
1
1
1
1
1
1
1
1
1
1
1
1
1
1
1
1
1
1
1
1
1
1
1
1
1
1
1
1
1
1
1
1
1
1
1
1
1
1
1
1
1
1
1
1
1
1
1
1
1
1
1
1
1
1
1
1
1
1
1
1
1
1
1
1
1
1
1
1
1
1
1
1
1
1
1
1
1
1
1
1
1
1
1
1
1
1
1
1
1
1
1
1
1
1
1
1
1
1
1
1
1
1
1
1
1
1
1
1
1
1
1
1
1
1
1
1
1
1
1
1
1
1
1
1
1
1
1
1
1
1
1
1
1
1
1
1
1
1
1
1
1
1
1
1
1
1
1
1
1
1
1
1
1
1
1
1
1
1
1
1
1
1
1
1
1
1
1
1
1
1
1
1
1
1
1
1
1
1
1
1
1
1
1
1
1
1
1
1
1
1
1
1
1
1
1
1
1
1
1
1
1
1
1
1
1
1
1
1
1
1
1
1
1
1
1
1
1
1
1
1
1
1
1
1
1
1
1
1
1
1
1
1
1
1
1
1
1
1
1
1
1
1
1
1
1
1
1
1
1
1
1
1
1
1
1
1
1
1
1
1
1
1
1
1
1
1
1
1
1
1
1
1
1
1
1
1
1
1
1
1
1
1
1
1
1
1
1
1
1
1
1
1
1
1
1
1
1
1
1
1
1
1
1
1
1
1
1
1
1
1
1
1
1
1
1
1
1
1
1
1
1
1
1
1
1
1
1
1
1
1
1
1
1
1
1
1
1
1
1
1
1
1
1
1
1
1
1
1
1
1
1
1
1
1
1
1
1
1
1
1
1
1
1
1
1
1
1
1
1
1
1
1
1
1
1
1
1
1
1
1
1
1
1
1
1
1
1
1
1
1
1
1
1
1
1
1
1
1
1
1
1
1
1
1
1
1
1
1
1
1
1
1
1
1
1
1
1
1
1
1
1
1
1
1
1
1
1
1
1
1
1
1
1
1
1
1
1
1
1
1
1
1
1
1
1
1
1
1
1
1
1
1
1
1
1
1
1
1
1
1
1
1
1
1
1
1
1
1
1
1
1
1
1
1
1
1
1
1
1
1
1
1
1
1
1
1
1
1
1
1
1
1
1
1
1
1
1
1
1
1
1
1
1
1
1
1
1
1
1
1
1
1
1
1
1
1
1
1
1
1
1
1
1
1
1
1
1
1
1
1
1
1
1
1
1
1
1
1
1
1
1
1
1
1
1
1
1
1
1
1
1
1
1
1
1
1
1
1
1
1
1
1
1
1
1
1
1
1
1
1
1
1
1
1
1
1
1
1
1
1
1
1
1
1
1
1
1
1
1
1
1
1
1
1
1
1
1
1
1
1
1
1
1
1
1
1
1
1
1
1
1
1
1
1
1
1
1
1
1
1
1
1
1
1
1
1
1
1
1
1
1
1
1
1
1
1
1
1
1
1
1
1
1
1
1
1
1
1
1
1
1
1
1
1
1
1
1
1
1
1
1
1
1
1
1
1
1
1
1
1
1
1
1
1
1
1
1
1
1
1
1
1
1
1
1
1
1
1
1
1
1
1
1
1
1
1
1
1
1
1
1
1
1
1
1
1
1
1
1
1
1
1
1
1
1
1
1
1
1
1
1
1
1
1
1
1
1
1
1
1
1
1
1
1
1
1
1
1
1
1
1
1
1
1
1
1
1
1
1
1
1
1
1
1
1
1
1
1
1
1
1
1
1
1
1
1
1
1
1
1
1
1
1
1
1
1
1
1
1
1
1
1
1
1
1
1
1
1
1
1
1
1
1
1
1
1
1
1
1
1
1
1
1
1
1
1
1
1
1
1
1
1
1
1
1
1
1
1
1
1
1
1
1
1
1
1
1
1
1
1
1
1
1
1
1
1
1
1
1
1
1
1
1
1
1
1
1
1
1
1
1
1
1
1
1
1
1
1
1
1
1
1
1
1
1
1
1
1
1
1
1
1
1
1
1
1
1
1
1
1
1
1
1
1
1
1
1
1
1
1
1
1
1
1
1
1
1
1
1
1
1
1
1
1
1
1
1
1
1
1
1
1
1
1
1
1
1
1
1
1
1
1
1
1
1
1
1
1
1
1
1
1
1
1
1
1
1
1
1
1
1
1
1
1
1
1
1
1
1
1
1
1
1
1
1
1
1
1
1
1
1
1
1
1
1
1
1
1
1
1
1
1
1
1
1
1
1
1
1
1
1
1
1
1
1
1
1
1
1
1
1
1
1
1
1
1
1
1
1
1
1
1
1
1
1
1
1
1
1
1
1
1
1
1
1
1
1
1
1
1
1
1
1
1
1
1
1
1
1
1
1
1
1
1
1
1
1
1
1
1
1
1
1
1
1
1
1
1
1
1
1
1
1
1
1
1
1
1
1
1
1
1
1
1
1
1
1
1
1
1
1
1
1
1
1
1
1
1
1
1
1
1
1
1
1
1
1
1
1
1
1
1
1
1
1
1
1
1
1
1
1
1
1
1
1
1
1
1
1
1
1
1
1
1
1
1
1
1
1
1
1
1
1
1
1
1
1
1
1
1
1
1
1
1
1
1
1
1
1
1
1
1
1
1
1
1
1
1
1
1
1
1
1
1
1
1
1
1
1
1
1
1
1
1
1
1
1
1
1
1
1
1
1
1
1
1
1
1
1
1
1
1
1
1
1
1
1
1
1
1
1
1
1
1
1
1
1
1
1
1
1
1
1
1
1
1
1
1
1
1
1
1
1
1
1
1
1
1
1
1
1
1
1
1
1
1
1
1
1
1
1
1
1
1
1
1
1
1
1
1
1
1
1
1
1
1
1
1
1
1
1
1
1
1
1
1
1
1
1
1
1
1
1
1

SCALARS density double 1
LOOKUP_TABLE default
0.999926
0.999902
0.999927
0.999936
0.999912
0.999917
0.999946
0.999927
0.999907
0.999962
0.999961
0.999898
0.99994
0.999991
0.999927
0.999904
0.999968
0.999966
0.999916
0.999936
0.999971
0.999945
0.999922
0.999956
0.999961
0.999924
0.999934
0.999967
0.999939
0.999918
0.999956
0.999968
0.99992
0.999926
0.999982
0.999954
0.999903
0.999952
0.999983
0.999926
0.999929
0.999977
0.999959
0.999941
0.999969
0.999973
0.99995
0.999957
0.999985
0.999959
0.999898
0.999926
0.999922
0.999913
0.999914
0.999912
0.999929
0.999935
0.99991
0.999922
0.999961
0.999936
0.999911
0.999961
0.99996
0.999918
0.999946
0.999965
0.999927
0.999934
0.999958
0.999936
0.999928
0.999953
0.999952
0.999933
0.999938
0.999959
0.999948
0.999931
0.999954
0.999957
0.999923
0.999942
0.999965
0.999928
0.999929
0.999971
0.99995
0.999931
0.999963
0.999973
0.999954
0.999958
0.999971
0.999971
0.999974
0.999962
0.999958
0.999988
0.999901
0.999915
0.999891
0.999876
0.999923
0.999918
0.999863
0.999917
0.999958
0.99989
0.999895
0.99997
0.999945
0.999891
0.999947
0.999981
0.999916
0.999916
0.999982
0.999959
0.999904
0.999951
0.999986
0.999922
0.999913
0.999979
0.999961
0.9999
0.999942
0.999982
0.999924
0.999908
0.999974
0.999967
0.999905
0.999943
0.999993
0.999938
0.999919
0.999989
0.999989
0.999927
0.999967
1.00001
0.999963
0.999959
1
0.999989
0.999965
0.999978
0.999873
0.999859
0.999858
0.999859
0.999866
0.999869
0.999879
0.999867
0.999877
0.999909
0.999897
0.999901
0.999929
0.99993
0.999923
0.99994
0.999952
0.999929
0.999936
0.999958
0.999935
0.999929
0.999955
0.999945
0.99993
0.999953
0.999945
0.999933
0.999954
0.99995
0.999933
0.99995
0.999953
0.999935
0.999949
0.99996
0.999952
0.999957
0.99998
0.99998
0.999971
1
1
0.999993
1.00001
1.00001
1.00001
1.00001
1.00002
0.999998
0.999815
0.999769
0.999805
0.999824
0.999756
0.999779
0.999853
0.999808
0.999794
0.999861
0.999879
0.99984
0.999877
0.999945
0.999908
0.999884
0.999956
0.99997
0.999895
0.999924
0.999994
0.999937
0.999897
0.999966
0.999979
0.999906
0.999923
0.999989
0.999947
0.999893
0.999963
0.999988
0.999913
0.999929
0.999999
0.99997
0.999932
1
1.00003
0.999989
1.00001
1.00007
1.00005
1.00001
1.00007
1.00009
1.00003
1.00005
1.00008
1.00005
0.99971
0.999672
0.999662
0.999661
0.999691
0.999675
0.999672
0.999719
0.999731
0.99974
0.99977
0.999801
0.999831
0.99984
0.99988
0.999906
0.999901
0.99992
0.999949
0.999938
0.999922
0.99995
0.999959
0.999932
0.999932
0.999959
0.999949
0.999923
0.99994
0.999963
0.999938
0.999934
0.999967
0.999975
0.999965
0.999995
1.00003
1.00003
1.00005
1.00008
1.0001
1.0001
1.00011
1.00015
1.00014
1.00013
1.00016
1.00015
1.00014
1.00012
0.99949
0.99953
0.99947
0.999423
0.999505
0.999484
0.999472
0.999522
0.99957
0.999568
0.999599
0.999697
0.999708
0.999717
0.999798
0.999869
0.999848
0.999855
0.999947
0.999943
0.999887
0.999934
0.999982
0.999922
0.999903
0.999978
0.999966
0.999902
0.999946
0.999994
0.99994
0.999929
1.00002
1.00002
0.999994
1.00006
1.00012
1.00012
1.00012
1.00021
1.00023
1.00021
1.00025
1.00029
1.00028
1.00026
1.00033
1.00029
1.00024
1.00028
0.999257
0.999214
0.999204
0.999174
0.999166
0.999185
0.999212
0.999236
0.999276
0.999325
0.999399
0.999424
0.999497
0.999605
0.999636
0.999682
0.999789
0.999853
0.999827
0.999877
0.999959
0.999922
0.999886
0.999959
0.999981
0.999897
0.999927
0.999993
0.999952
0.999919
0.999998
1.00004
1
1.00006
1.00015
1.00018
1.00019
1.00028
1.00033
1.00033
1.00039
1.00043
1.00044
1.00045
1.00048
1.00049
1.00048
1.00046
1.00047
1.00043
0.998977
0.998808
0.998827
0.998852
0.998815
0.998809
0.998877
0.998888
0.998902
0.999008
0.999068
0.999107
0.999201
0.999323
0.999416
0.999467
0.999611
0.999713
0.999743
0.999803
0.999894
0.999912
0.999878
0.999948
0.999964
0.999916
0.999926
0.999995
0.999962
0.999971
1.00005
1.0001
1.00011
1.00018
1.0003
1.00033
1.00039
1.00047
1.00054
1.00055
1.00059
1.00067
1.00066
1.00067
1.00072
1.00071
1.00069
1.0007
1.00073
1.00061
0.998513
0.998482
0.998486
0.998464
0.998463
0.998477
0.998504
0.998514
0.998594
0.99859
0.99865
0.998799
0.998837
0.998909
0.999063
0.999242
0.99928
0.999416
0.999629
0.99969
0.999711
0.999836
0.999936
0.99987
0.999889
0.999986
0.999994
0.999925
1.00002
1.00012
1.00012
1.00016
1.00034
1.00043
1.00043
1.00057
1.00067
1.0007
1.00071
1.00082
1.00086
1.00083
1.0009
1.00091
1.00092
1.00093
1.00095
1.00093
1.00092
1.00092
0.998123
0.998214
0.998208
0.998148
0.998251
0.998267
0.998224
0.998248
0.998329
0.99832
0.998343
0.998402
0.998513
0.99854
0.998663
0.998822
0.998954
0.999106
0.99929
0.999462
0.999571
0.999698
0.999808
0.999853
0.999895
0.99996
0.999997
1.00003
1.00011
1.00022
1.00029
1.00042
1.00053
1.00064
1.00072
1.00081
1.0009
1.00089
1.00098
1.001
1.00102
1.00102
1.00107
1.0011
1.00107
1.00108
1.00117
1.00111
1.00111
1.00118
0.997946
0.997985
0.998058
0.998096
0.998177
0.998125
0.998222
0.998206
0.998175
0.998226
0.998234
0.99819
0.998223
0.998331
0.998334
0.998369
0.998601
0.99875
0.998868
0.999088
0.999365
0.999486
0.999563
0.999806
0.999897
0.999926
1.00001
1.00022
1.00026
1.00033
1.00056
1.0007
1.00076
1.00085
1.00102
1.00102
1.001
1.0011
1.00112
1.00109
1.00111
1.00117
1.00115
1.00114
1.00123
1.0012
1.00124
1.00126
1.00133
1.00131
0.997853
0.997882
0.998076
0.998124
0.998156
0.998125
0.99828
0.998277
0.998229
0.998232
0.998283
0.998232
0.998175
0.998176
0.998163
0.998207
0.998204
0.998362
0.998499
0.998689
0.998927
0.999151
0.999416
0.999574
0.999821
0.999949
1.00017
1.00029
1.0005
1.00065
1.00081
1.00093
1.00101
1.00113
1.00109
1.00115
1.00116
1.00116
1.00115
1.00115
1.00121
1.00123
1.00121
1.00122
1.00132
1.00132
1.00133
1.00134
1.00147
1.00145
0.997869
0.99798
0.998111
0.997993
0.998165
0.998218
0.998217
0.998215
0.998356
0.998357
0.998288
0.998357
0.998364
0.99819
0.998229
0.998194
0.9981
0.998058
0.998241
0.998362
0.998448
0.9988
0.999132
0.999369
0.999614
1.00005
1.00026
1.00045
1.0007
1.00098
1.001
1.00108
1.00124
1.0012
1.00115
1.00115
1.00125
1.00114
1.00118
1.00129
1.00124
1.00126
1.00138
1.0014
1.00136
1.00141
1.00153
1.00143
1.00149
1.00155
0.99802
0.998029
0.998075
0.997944
0.998069
0.998092
0.998088
0.998124
0.998242
0.998312
0.998295
0.998368
0.998415
0.998445
0.998305
0.998282
0.998224
0.998119
0.998033
0.998078
0.998261
0.998421
0.998712
0.999159
0.999556
0.999935
1.00032
1.0007
1.00094
1.00104
1.00122
1.00126
1.00121
1.00118
1.0012
1.00124
1.00116
1.00125
1.00132
1.00136
1.00137
1.00143
1.00149
1.00152
1.00151
1.00153
1.00159
1.00153
1.00155
1.00154
0.99819
0.997925
0.998028
0.998041
0.997978
0.997878
0.998019
0.998069
0.997928
0.998064
0.998248
0.998217
0.998279
0.998444
0.998476
0.998353
0.998372
0.998335
0.998084
0.998042
0.998154
0.998217
0.99846
0.998899
0.99947
0.999816
1.00036
1.00079
1.00102
1.00112
1.00125
1.00131
1.00115
1.00121
1.00129
1.00123
1.00129
1.00143
1.00148
1.00143
1.00155
1.00166
1.00152
1.00156
1.00168
1.00161
1.00155
1.0016
1.0017
1.00152
0.9982
0.998081
0.998157
0.998093
0.998088
0.998016
0.998003
0.997983
0.997944
0.997937
0.997998
0.998065
0.998111
0.998214
0.9984
0.99846
0.998457
0.998397
0.998451
0.998292
0.998128
0.9983
0.998495
0.998798
0.999172
0.999882
1.00027
1.00063
1.00091
1.00118
1.00113
1.0011
1.00127
1.00126
1.00129
1.00136
1.00151
1.00155
1.00155
1.00161
1.00162
1.0016
1.00159
1.0016
1.00157
1.00156
1.00159
1.00154
1.00161
1.00159
0.99818
0.998282
0.998261
0.998055
0.998199
0.998255
0.998039
0.998007
0.9981
0.998015
0.997807
0.99793
0.998035
0.997977
0.998037
0.99837
0.998396
0.998476
0.998557
0.998595
0.998486
0.998506
0.998734
0.998836
0.99923
0.99964
1.00012
1.00034
1.00073
1.00092
1.001
1.00114
1.00127
1.00138
1.00138
1.00163
1.00164
1.00156
1.00163
1.00172
1.00156
1.00152
1.00162
1.00164
1.00147
1.00155
1.00168
1.00152
1.00151
1.00163
0.998239
0.998076
0.998141
0.9981
0.998119
0.998069
0.998131
0.998122
0.998039
0.998078
0.998024
0.997928
0.997876
0.997911
0.997956
0.997946
0.998273
0.998432
0.998563
0.99874
0.999003
0.998969
0.998923
0.99923
0.999363
0.999459
0.999688
1.0002
1.00035
1.00053
1.00093
1.00119
1.0013
1.00143
1.0017
1.00162
1.00162
1.00168
1.00164
1.00156
1.00157
1.00166
1.00156
1.00159
1.00166
1.00163
1.00162
1.00163
1.00168
1.00155
0.998124
0.997836
0.997939
0.998013
0.997932
0.997847
0.998049
0.998156
0.997984
0.998065
0.998184
0.998075
0.99788
0.997977
0.997961
0.997869
0.997957
0.998356
0.998562
0.998861
0.99922
0.999459
0.999503
0.999514
0.99947
0.999443
0.999516
0.999686
0.999963
1.00033
1.00079
1.00109
1.0013
1.00161
1.00165
1.00158
1.00159
1.00169
1.00156
1.00151
1.00162
1.00169
1.00154
1.00163
1.00176
1.0017
1.00162
1.00171
1.00178
1.00158
0.997757
0.99785
0.997873
0.997687
0.997866
0.997967
0.997789
0.997891
0.998032
0.998053
0.997938
0.998165
0.998153
0.997952
0.997942
0.998014
0.997971
0.998062
0.998535
0.998994
0.999257
0.999714
1.00006
0.999783
0.999629
0.999528
0.999432
0.99928
0.999691
1.00026
1.00052
1.00096
1.00142
1.00152
1.0015
1.00162
1.00168
1.00151
1.00153
1.00176
1.00162
1.00161
1.00174
1.0018
1.0016
1.0017
1.00184
1.00168
1.00168
1.0018
0.997633
0.997818
0.997874
0.99768
0.997891
0.997959
0.997757
0.997764
0.997934
0.997964
0.997863
0.99799
0.998186
0.998111
0.998031
0.998144
0.998236
0.998176
0.998528
0.998983
0.99949
0.999845
1.00004
1.00017
0.999856
0.999602
0.999287
0.999383
0.999544
0.999848
1.00037
1.00083
1.0012
1.00126
1.00143
1.00159
1.00155
1.00154
1.00169
1.00177
1.00167
1.0017
1.0018
1.00181
1.00166
1.00173
1.00184
1.00172
1.00172
1.00184
0.997797
0.997562
0.997738
0.997933
0.997809
0.997637
0.997878
0.997926
0.997627
0.997764
0.997982
0.997854
0.997842
0.998175
0.998277
0.99816
0.998337
0.998732
0.998689
0.999018
0.999563
0.999867
0.999977
1.00013
1.00016
0.999602
0.999506
0.999503
0.999479
0.999663
1.00019
1.0006
1.00067
1.00116
1.00145
1.0014
1.00151
1.00181
1.00177
1.00163
1.00181
1.00195
1.00166
1.00174
1.00195
1.00183
1.00167
1.00188
1.00196
1.00172
0.997744
0.99761
0.99775
0.997836
0.997769
0.997713
0.997829
0.997955
0.997798
0.997775
0.997876
0.997937
0.997801
0.997962
0.998274
0.998393
0.998577
0.99886
0.99924
0.999277
0.999492
0.999768
0.999941
0.999993
0.999875
1.00004
0.99979
0.999608
0.999565
0.999724
0.999906
1.00004
1.00058
1.00095
1.0012
1.00139
1.00168
1.00179
1.00168
1.00177
1.00183
1.00181
1.00171
1.00184
1.00186
1.00187
1.00181
1.00188
1.00193
1.00186
0.997638
0.998045
0.997932
0.997602
0.99788
0.998121
0.997799
0.997806
0.998142
0.998013
0.997699
0.997919
0.998113
0.99787
0.998053
0.998649
0.998894
0.999089
0.999501
0.999834
0.999583
0.99959
0.999817
0.999733
0.999869
1.00008
1.00011
0.999784
0.999798
0.999705
0.999474
0.999832
1.00032
1.00063
1.00093
1.00152
1.00173
1.00153
1.00175
1.00197
1.00171
1.00163
1.00192
1.00194
1.00161
1.00184
1.00204
1.00179
1.00165
1.00203
0.997939
0.997844
0.997819
0.997813
0.997819
0.99781
0.997848
0.997762
0.997719
0.997896
0.99788
0.997787
0.997897
0.998115
0.998155
0.998443
0.999084
0.999471
0.999666
0.999853
0.999929
0.999605
0.999412
0.999652
0.999907
0.999988
1.00014
1.0003
0.999958
0.999543
0.999554
0.99974
0.999949
1.00038
1.00107
1.00137
1.00148
1.00177
1.0019
1.00182
1.00186
1.00206
1.00195
1.00192
1.00199
1.00198
1.00189
1.00199
1.00195
1.00185
0.998112
0.997492
0.997696
0.998114
0.997678
0.997386
0.997804
0.997951
0.997467
0.997688
0.998139
0.997937
0.997786
0.998282
0.998628
0.998574
0.999103
0.999807
0.999924
0.99985
0.999959
0.999802
0.999391
0.999479
0.999769
1.00001
1.00028
1.00038
0.999974
0.999697
0.999689
0.999558
0.999634
1.00032
1.00087
1.00094
1.00137
1.00186
1.00176
1.00162
1.00202
1.00219
1.00177
1.00195
1.00229
1.00208
1.00172
1.00211
1.00225
1.0018
0.997638
0.997851
0.997822
0.9976
0.997713
0.997876
0.997655
0.997709
0.997899
0.997757
0.997718
0.998028
0.99815
0.99815
0.998612
0.999139
0.999295
0.99958
1.00003
1.00009
0.999703
0.99966
0.999727
0.9995
0.999636
1.00004
1.00027
1.00014
1.00019
1.00013
0.999612
0.999496
0.999874
1.00014
1.00035
1.00097
1.0015
1.00153
1.00169
1.00204
1.00195
1.00182
1.00205
1.0021
1.00183
1.00206
1.00221
1.00199
1.00194
1.00227
0.997505
0.998015
0.997773
0.997315
0.997737
0.998106
0.997595
0.997469
0.997923
0.997908
0.997405
0.997734
0.99828
0.99832
0.998513
0.999296
0.999707
0.999586
0.99982
0.999941
0.999782
0.999604
0.999716
0.999773
0.999657
0.999968
1.00002
1.00017
1.00035
1.00012
0.999868
0.999811
0.999901
0.999804
1.00023
1.00101
1.00127
1.0014
1.00195
1.00224
1.00185
1.00192
1.00227
1.00217
1.00175
1.00209
1.00238
1.00208
1.00187
1.00231
0.997802
0.99733
0.997408
0.997965
0.997557
0.997343
0.997814
0.997813
0.99734
0.997632
0.998002
0.997734
0.997969
0.998763
0.999133
0.999242
0.999802
1.00013
0.999632
0.999607
0.999827
0.999796
0.999668
0.999863
1.00007
0.999678
0.999876
1.0002
1.00019
1.00014
1.00026
1.00013
0.99952
0.999757
1.00031
1.00041
1.00082
1.00164
1.00189
1.00167
1.0021
1.00243
1.00195
1.00199
1.00246
1.00223
1.00179
1.00241
1.00244
1.00197
0.99763
0.997192
0.997461
0.997809
0.9975
0.997262
0.99766
0.997854
0.99745
0.997577
0.998062
0.998117
0.998049
0.998737
0.999386
0.999557
0.999655
0.999878
0.999792
0.999357
0.999503
0.999739
0.999899
0.999998
0.999882
0.999903
0.999817
0.99997
1.0002
1.00046
1.00058
1.00009
0.999902
1.00001
1.00002
1.00019
1.00089
1.00153
1.00155
1.00174
1.00216
1.00225
1.00199
1.00219
1.00243
1.0023
1.00207
1.00232
1.00248
1.00218
0.996957
0.997994
0.997725
0.996897
0.997565
0.998018
0.997201
0.997243
0.998081
0.99792
0.997406
0.998149
0.998873
0.998632
0.99914
0.999933
0.999897
0.999439
0.999574
0.999715
0.999298
0.999657
1.00013
0.99998
0.9999
0.999948
0.999911
0.99974
1.00018
1.00065
1.0003
1.00037
1.0004
0.999842
0.9997
1.00042
1.00097
1.00082
1.00157
1.00235
1.00187
1.00173
1.00254
1.00257
1.00179
1.00232
1.00286
1.00211
1.00183
1.0028
0.997361
0.997627
0.997345
0.997237
0.997416
0.997603
0.997403
0.997339
0.99757
0.99778
0.997648
0.998021
0.998747
0.999205
0.999329
0.999801
1
0.999654
0.999397
0.999481
0.999681
0.999631
0.999848
1.0001
1.00003
0.99991
0.999781
1
1.00025
1.00027
1.00054
1.00064
1.00029
0.999806
0.999944
1.00032
1.00042
1.001
1.00174
1.00202
1.00201
1.00228
1.0024
1.00235
1.00231
1.00245
1.00247
1.00256
1.0023
1.00235
0.998099
0.996677
0.997232
0.99832
0.997481
0.996803
0.997866
0.998122
0.997046
0.997436
0.998482
0.998378
0.998387
0.99954
1.00014
0.99951
0.999645
0.999807
0.999421
0.999237
0.999649
0.999852
0.999652
0.999901
1.0001
0.999866
0.999963
1.00021
1.00008
1.00029
1.00076
1.00066
1.0002
1.00025
1.00031
0.999676
1.00019
1.00134
1.00139
1.00129
1.00233
1.00272
1.00176
1.00208
1.00302
1.0024
1.00166
1.00271
1.00313
1.00187
0.997077
0.997555
0.997563
0.99732
0.997398
0.997573
0.997292
0.99742
0.997664
0.997506
0.997842
0.998581
0.999036
0.999257
0.999739
1.00001
0.999431
0.999332
0.999526
0.999551
0.999476
0.9997
0.999922
0.999724
0.99977
1.00013
1.00023
1.00002
1.00019
1.00047
1.00049
1.00051
1.00072
1.00059
0.999924
1.00012
1.00061
1.00073
1.00116
1.00196
1.00226
1.00213
1.00252
1.00269
1.00225
1.00255
1.00273
1.00236
1.00232
1.00305
0.996858
0.998336
0.997691
0.99642
0.997468
0.998331
0.996964
0.99684
0.998112
0.998249
0.997498
0.998608
0.999733
0.999389
0.999402
1.00001
0.999814
0.999075
0.999508
0.999875
0.999624
0.999626
0.999838
0.999757
0.999756
1.00014
1.0002
1.00011
1.00032
1.00035
1.00014
1.00056
1.00101
1.00034
1.00006
1.00056
1.00052
1.00013
1.00121
1.0023
1.00164
1.00182
1.00301
1.00286
1.00174
1.00254
1.0034
1.00231
1.00183
1.00311
0.998047
0.996956
0.997004
0.998049
0.997305
0.996775
0.997678
0.997752
0.997095
0.997763
0.998822
0.998604
0.99901
0.999837
0.999981
0.999383
0.999418
0.999706
0.999386
0.999505
0.999797
0.999707
0.99945
0.999683
1
0.999951
1.0002
1.00052
1.00035
1.00017
1.00046
1.00071
1.00047
1.00068
1.00078
1.00013
1.00009
1.0009
1.00131
1.00109
1.00212
1.00287
1.00214
1.00224
1.00328
1.00271
1.0019
1.00315
1.00317
1.00197
0.997846
0.996207
0.997062
0.998282
0.99716
0.99636
0.997687
0.998111
0.996863
0.997425
0.99891
0.999133
0.998765
0.999816
1.00016
0.999349
0.999194
0.999664
0.999715
0.999353
0.99964
0.999748
0.999515
0.999624
0.999859
1.00006
1.00032
1.00048
1.00028
1.00035
1.00065
1.00041
1.0005
1.00103
1.0009
1
1.00026
1.00122
1.00089
1.00106
1.00247
1.00294
1.00195
1.00239
1.00348
1.00283
1.00201
1.00303
1.00369
1.00243
0.996003
0.998384
0.997713
0.995879
0.997369
0.998425
0.996767
0.996703
0.998434
0.998253
0.997694
0.999105
1.00037
0.999558
0.999487
0.999894
0.999557
0.999207
0.999663
0.999901
0.999406
0.999519
0.999845
0.999716
0.999754
1.00016
1.0003
1.00017
1.00045
1.00063
1.00019
1.0004
1.00099
1.00077
1.00037
1.00073
1.00072
0.999872
1.00091
1.00232
1.00176
1.0015
1.00329
1.00327
1.00159
1.00281
1.00423
1.00232
1.00176
1.00423
0.996984
0.997974
0.997104
0.996403
0.997223
0.997933
0.997004
0.996755
0.997956
0.998281
0.997975
0.998856
0.999952
0.999882
0.999313
0.999554
0.99951
0.999324
0.999495
0.999617
0.999571
0.999439
0.999569
0.999748
0.999899
1.00009
1.00019
1.0004
1.00061
1.00046
1.00037
1.00061
1.00088
1.00073
1.00078
1.00105
1.00049
1.00029
1.00129
1.00205
1.00179
1.00216
1.0032
1.00298
1.00236
1.00301
1.00348
1.00319
1.00251
1.00301
0.998749
0.995162
0.996466
0.999121
0.996989
0.995441
0.998048
0.998673
0.996482
0.997653
0.999784
0.999217
0.99884
1.00012
1.00047
0.999103
0.999313
1.00007
0.999594
0.99925
0.999681
0.999745
0.999383
0.999745
1.00016
0.999978
1.00023
1.0006
1.00031
1.00033
1.0008
1.0006
1.00014
1.00092
1.00138
1.00014
1.00024
1.00147
1.00111
1.0004
1.0024
1.00359
1.00146
1.00207
1.00471
1.00309
1.00116
1.0039
1.00494
1.00147
0.996368
0.996627
0.997224
0.997105
0.996788
0.996901
0.997144
0.997537
0.997772
0.99788
0.998772
0.999341
0.999576
0.999709
0.999725
0.999653
0.999457
0.999511
0.999417
0.99927
0.999397
0.999493
0.999584
0.999732
0.999927
1.00012
1.00033
1.00041
1.00044
1.00058
1.00074
1.0006
1.00062
1.00091
1.00089
1.00081
1.00087
1.00094
1.00101
1.00154
1.00237
1.00237
1.00272
1.00316
1.00312
1.00341
1.00349
1.00302
1.00341
1.00436
0.99525
0.99983
0.997989
0.994072
0.997377
0.999372
0.996141
0.995973
0.999054
0.999136
0.997432
0.999303
1.00081
0.99948
0.999076
1.00007
0.999996
0.99901
0.999294
0.999776
0.999411
0.999431
0.999794
0.999851
0.999931
1.00025
1.0003
1.00025
1.00056
1.0006
1.00019
1.00068
1.00123
1.00048
1.00039
1.00153
1.00129
0.999843
1.00111
1.00299
1.00134
1.00113
1.00419
1.00403
1.00093
1.00303
1.00609
1.00234
1.00102
1.00527
0.998509
0.995931
0.995843
0.998089
0.996769
0.996002
0.99739
0.997621
0.997209
0.997967
0.999501
0.999428
0.999474
0.999931
0.999884
0.999519
0.999478
0.999675
0.999279
0.999088
0.999445
0.999571
0.999537
0.999869
1.00017
1.00015
1.00025
1.0005
1.00045
1.00043
1.00076
1.00078
1.00053
1.0008
1.00102
1.00084
1.00078
1.00127
1.00137
1.00111
1.00244
1.00316
1.00262
1.00279
1.00438
1.0037
1.00214
1.00495
1.00492
1.00178
0.998832
0.993291
0.996297
0.999977
0.996592
0.99442
0.998293
0.999038
0.996297
0.997746
1.00034
0.999866
0.998949
1.00015
1.00048
0.999233
0.999269
0.999725
0.99914
0.998831
0.999459
0.999678
0.999448
0.999908
1.00028
1.00012
1.00033
1.00062
1.00024
1.00035
1.00106
1.00085
1.00032
1.00105
1.0015
1.00037
1.00065
1.00208
1.00124
1.00037
1.00278
1.00419
1.00136
1.00198
1.00586
1.00383
1.0008
1.00455
1.00689
1.00217
0.993482
0.999364
0.997871
0.993755
0.99671
0.999014
0.995938
0.995668
0.998675
0.998852
0.998141
0.999473
1.00084
0.999799
0.999221
0.999919
0.999724
0.998989
0.999036
0.999405
0.999339
0.99941
0.999872
1.00007
1.00013
1.00034
1.00036
1.00029
1.00049
1.00051
1.00046
1.00085
1.00109
1.00058
1.00047
1.00144
1.00134
1.0004
1.00153
1.00281
1.00191
1.00161
1.0046
1.00445
1.00144
1.00385
1.0071
1.00259
1.00152
1.00837
0.996046
1.00032
0.996954
0.993257
0.997327
0.998962
0.995985
0.996219
0.998952
0.998984
0.998254
0.999973
1.00102
0.999944
0.999566
0.999993
0.999568
0.998781
0.998949
0.999134
0.999043
0.999452
1.00001
1.00009
1.00016
1.00042
1.00032
1.00016
1.00052
1.0007
1.00046
1.00079
1.00128
1.00067
1.00041
1.00139
1.00148
1.00035
1.00133
1.00309
1.00199
1.00146
1.00425
1.0046
1.00154
1.00324
1.00726
1.00373
1.00171
1.00518
1.00057
0.98884
0.993955
1.00127
0.99618
0.993006
0.997807
0.999158
0.996184
0.997241
1.00061
1.00028
0.999275
1.00045
1.00059
0.999061
0.998691
0.999453
0.999043
0.998591
0.999264
0.999825
0.999858
1.0002
1.00046
1.00029
1.00039
1.00052
1.0002
1.00043
1.00118
1.00088
1.00032
1.00118
1.00139
1.00028
1.00074
1.00248
1.00159
1.00055
1.00356
1.00469
1.0013
1.00228
1.00749
1.00442
0.999423
1.00749
1.01115
0.99874
0.994205
0.993919
0.996699
0.998088
0.995628
0.99631
0.997605
0.997586
0.997136
0.998788
0.999924
0.999989
1.0004
1.00088
1.00015
0.999224
0.999094
0.999056
0.998553
0.998705
0.999289
0.999636
0.999882
1.00042
1.00052
1.0002
1.00019
1.00047
1.00032
1.00037
1.00093
1.00109
1.00056
1.00075
1.00114
1.00075
1.00061
1.00171
1.00213
1.0015
1.00236
1.00398
1.00305
1.00247
1.00445
1.00551
1.00234
1.00445
1.00797
1.00849
0.993214
1.00741
0.997026
0.990245
0.997169
1.00053
0.994828
0.995295
0.999446
0.999171
0.997573
1.00018
1.00192
1.00041
0.999541
1.00015
0.99922
0.998026
0.998405
0.998992
0.99893
0.999524
1.00042
1.00048
1.00045
1.00065
1.00023
0.999961
1.00058
1.0007
1.00023
1.00098
1.00167
1.00048
0.999977
1.00177
1.00147
0.999752
1.00182
1.00457
1.00163
1.00079
1.00628
1.00557
0.998789
1.00454
1.012
1.0008
0.996549
1.02309

VECTORS velocity double
2.17773e-06 3.01001e-06 0
-4.63576e-08 4.32537e-06 0
-6.34373e-07 3.64616e-06 0
-7.26725e-07 2.22326e-06 0
2.76486e-06 1.01311e-06 0
-1.31997e-06 7.38693e-06 0
-4.23201e-06 6.05975e-07 0
-1.33659e-06 5.78073e-07 0
3.68136e-06 7.387e-06 0
-4.40196e-06 2.05556e-06 0
-1.02988e-06 -5.42077e-06 0
7.79421e-06 4.79454e-06 0
9.79379e-07 4.1608e-06 0
-2.24086e-06 -2.71589e-06 0
6.03392e-06 -4.51275e-06 0
1.69103e-06 2.59795e-06 0
-2.27747e-06 1.89435e-06 0
4.54798e-06 -1.30595e-06 0
4.79292e-06 -2.55692e-06 0
2.78025e-06 3.56536e-06 0
6.12832e-06 -4.49333e-07 0
4.43743e-06 -1.80365e-06 0
4.49183e-06 1.67931e-06 0
8.06146e-06 8.87061e-07 0
5.59434e-06 -2.9724e-06 0
5.1208e-06 2.96384e-06 0
8.42622e-06 -4.97884e-07 0
5.72865e-06 -1.93302e-06 0
4.69987e-06 1.88043e-06 0
6.5254e-06 1.0934e-06 0
4.73915e-06 -3.72192e-06 0
5.42336e-06 2.29168e-06 0
4.38462e-06 1.72582e-06 0
-9.03905e-07 -1.97309e-06 0
2.50413e-06 -2.31367e-06 0
5.21862e-06 4.68516e-06 0
-1.58602e-06 2.01629e-06 0
1.54397e-06 -4.08282e-06 0
6.81372e-06 -3.52911e-06 0
-1.12106e-06 4.6859e-06 0
-3.5997e-06 -2.54622e-06 0
3.25057e-06 -6.26725e-06 0
-1.5737e-06 -7.15566e-08 0
-4.07258e-06 -1.07565e-06 0
-1.26538e-06 -6.5746e-06 0
2.47588e-06 -3.89527e-07 0
-7.24055e-07 -1.94794e-06 0
-1.06333e-06 -3.00395e-06 0
1.91148e-07 -3.71726e-06 0
2.0856e-06 -2.24017e-06 0
-5.70233e-07 1.07494e-05 0
-3.35226e-06 1.31642e-05 0
3.86125e-06 1.51045e-05 0
-2.74159e-06 7.39783e-06 0
-3.16176e-06 8.83861e-06 0
-6.32356e-07 2.15999e-05 0
-2.82366e-06 5.70633e-06 0
-6.85696e-06 1.79717e-06 0
2.08061e-06 1.38651e-05 0
2.78788e-06 1.46387e-05 0
-5.88188e-06 -5.64332e-06 0
-2.91792e-06 2.76197e-06 0
7.84582e-06 1.07047e-05 0
8.75435e-07 -1.93146e-07 0
-7.21649e-07 -4.39186e-06 0
6.64473e-06 5.0944e-06 0
4.62626e-06 4.57021e-07 0
2.12179e-06 4.55441e-08 0
8.18114e-06 1.11629e-06 0
6.81444e-06 2.86236e-06 0
3.61244e-06 -2.31523e-06 0
6.10303e-06 1.38763e-06 0
7.17189e-06 3.1069e-06 0
5.70845e-06 7.24231e-09 0
5.82042e-06 -3.83299e-06 0
5.56318e-06 4.39886e-06 0
5.61054e-06 4.27897e-08 0
7.03228e-06 -3.31696e-06 0
5.21804e-06 -2.98898e-07 0
3.42861e-06 2.66761e-06 0
6.82226e-06 -3.77397e-06 0
7.26724e-06 -1.83114e-07 0
1.74022e-06 9.47369e-07 0
4.53243e-06 -1.38313e-06 0
6.23484e-06 -3.98425e-06 0
-3.56061e-07 5.3738e-06 0
1.10603e-06 -1.99101e-07 0
6.91466e-06 -9.36263e-06 0
-2.32913e-06 -6.75685e-07 0
-4.55337e-06 4.88311e-06 0
2.59123e-06 -1.33855e-05 0
1.57158e-06 -1.13676e-05 0
-5.1388e-06 -9.12299e-07 0
-2.17544e-06 -4.96271e-06 0
-3.76923e-07 -1.88042e-05 0
-2.44467e-06 -7.12578e-06 0
-1.13087e-06 -5.48547e-06 0
4.1538e-06 -1.31708e-05 0
-2.14974e-06 -1.09998e-05 0
-4.75825e-07 -8.56923e-06 0
2.34549e-06 2.35851e-05 0
-6.67459e-07 2.5103e-05 0
-1.1744e-06 2.51141e-05 0
-4.08417e-06 3.23725e-05 0
-1.09221e-05 1.98676e-05 0
-1.0749e-05 2.04749e-05 0
4.62352e-06 3.16344e-05 0
-1.02532e-05 2.02675e-05 0
-1.78229e-05 5.3618e-06 0
5.61262e-07 2.44838e-05 0
1.44041e-06 1.48394e-05 0
-1.49856e-05 -4.38803e-07 0
-7.80644e-06 7.60417e-06 0
2.60802e-06 9.33205e-06 0
-7.52626e-06 -2.72615e-06 0
-1.19768e-05 3.24191e-06 0
-3.99881e-07 3.09406e-06 0
-3.41081e-06 3.22093e-07 0
-1.17003e-05 1.6957e-06 0
-5.49597e-06 -8.14438e-07 0
-3.4156e-06 5.32088e-07 0
-1.30955e-05 2.46268e-06 0
-1.04967e-05 -4.81987e-06 0
-4.96365e-06 1.38172e-06 0
-1.31635e-05 4.85981e-06 0
-1.29762e-05 -4.29468e-06 0
-4.99922e-06 -1.44844e-06 0
-1.06925e-05 5.8761e-06 0
-1.27361e-05 -1.6913e-06 0
-3.1552e-06 -1.29449e-06 0
-6.0392e-06 2.12441e-06 0
-1.13751e-05 -8.21257e-08 0
-2.43572e-06 -1.17496e-06 0
-7.94883e-07 -2.14579e-06 0
-1.22641e-05 -5.6785e-07 0
-6.61958e-06 2.29154e-06 0