# vtk DataFile Version 4.0
SiwiRVisFile
ASCII
DATASET STRUCTURED_POINTS
DIMENSIONS 50 50 1
ORIGIN 0 0 0
SPACING 1 1 1
POINT_DATA 2500


SCALARS flags double 1
LOOKUP_TABLE default
1
1
1
1
1
1
1
1
1
1
1
1
1
1
1
1
1
1
1
1
1
1
1
1
1
1
1
1
1
1
1
1
1
1
1
1
1
1
1
1
1
1
1
1
1
1
1
1
1
1
1
1
1
1
1
1
1
1
1
1
1
1
1
1
1
1
1
1
1
1
1
1
1
1
1
1
1
1
1
1
1
1
1
1
1
1
1
1
1
1
1
1
1
1
1
1
1
1
1
1
1
1
1
1
1
1
1
1
1
1
1
1
1
1
1
1
1
1
1
1
1
1
1
1
1
1
1
1
1
1
1
1
1
1
1
1
1
1
1
1
1
1
1
1
1
1
1
1
1
1
1
1
1
1
1
1
1
1
1
1
1
1
1
1
1
1
1
1
1
1
1
1
1
1
1
1
1
1
1
1
1
1
1
1
1
1
1
1
1
1
1
1
1
1
1
1
1
1
1
1
1
1
1
1
1
1
1
1
1
1
1
1
1
1
1
1
1
1
1
1
1
1
1
1
1
1
1
1
1
1
1
1
1
1
1
1
1
1
1
1
1
1
1
1
1
1
1
1
1
1
1
1
1
1
1
1
1
1
1
1
1
1
1
1
1
1
1
1
1
1
1
1
1
1
1
1
1
1
1
1
1
1
1
1
1
1
1
1
1
1
1
1
1
1
1
1
1
1
1
1
1
1
1
1
1
1
1
1
1
1
1
1
1
1
1
1
1
1
1
1
1
1
1
1
1
1
1
1
1
1
1
1
1
1
1
1
1
1
1
1
1
1
1
1
1
1
1
1
1
1
1
1
1
1
1
1
1
1
1
1
1
1
1
1
1
1
1
1
1
1
1
1
1
1
1
1
1
1
1
1
1
1
1
1
1
1
1
1
1
1
1
1
1
1
1
1
1
1
1
1
1
1
1
1
1
1
1
1
1
1
1
1
1
1
1
1
1
1
1
1
1
1
1
1
1
1
1
1
1
1
1
1
1
1
1
1
1
1
1
1
1
1
1
1
1
1
1
1
1
1
1
1
1
1
1
1
1
1
1
1
1
1
1
1
1
1
1
1
1
1
1
1
1
1
1
1
1
1
1
1
1
1
1
1
1
1
1
1
1
1
1
1
1
1
1
1
1
1
1
1
1
1
1
1
1
1
1
1
1
1
1
1
1
1
1
1
1
1
1
1
1
1
1
1
1
1
1
1
1
1
1
1
1
1
1
1
1
1
1
1
1
1
1
1
1
1
1
1
1
1
1
1
1
1
1
1
1
1
1
1
1
1
1
1
1
1
1
1
1
1
1
1
1
1
1
1
1
1
1
1
1
1
1
1
1
1
1
1
1
1
1
1
1
1
1
1
1
1
1
1
1
1
1
1
1
1
1
1
1
1
1
1
1
1
1
1
1
1
1
1
1
1
1
1
1
1
1
1
1
1
1
1
1
1
1
1
1
1
1
1
1
1
1
1
1
1
1
1
1
1
1
1
1
1
1
1
1
1
1
1
1
1
1
1
1
1
1
1
1
1
1
1
1
1
1
1
1
1
1
1
1
1
1
1
1
1
1
1
1
1
1
1
1
1
1
1
1
1
1
1
1
1
1
1
1
1
1
1
1
1
1
1
1
1
1
1
1
1
1
1
1
1
1
1
1
1
1
1
1
1
1
1
1
1
1
1
1
1
1
1
1
1
1
1
1
1
1
1
1
1
1
1
1
1
1
1
1
1
1
1
1
1
1
1
1
1
1
1
1
1
1
1
1
1
1
1
1
1
1
1
1
1
1
1
1
1
1
1
1
1
1
1
1
1
1
1
1
1
1
1
1
1
1
1
1
1
1
1
1
1
1
1
1
1
1
1
1
1
1
1
1
1
1
1
1
1
1
1
1
1
1
1
1
1
1
1
1
1
1
1
1
1
1
1
1
1
1
1
1
1
1
1
1
1
1
1
1
1
1
1
1
1
1
1
1
1
1
1
1
1
1
1
1
1
1
1
1
1
1
1
1
1
1
1
1
1
1
1
1
1
1
1
1
1
1
1
1
1
1
1
1
1
1
1
1
1
1
1
1
1
1
1
1
1
1
1
1
1
1
1
1
1
1
1
1
1
1
1
1
1
1
1
1
1
1
1
1
1
1
1
1
1
1
1
1
1
1
1
1
1
1
1
1
1
1
1
1
1
1
1
1
1
1
1
1
1
1
1
1
1
1
1
1
1
1
1
1
1
1
1
1
1
1
1
1
1
1
1
1
1
1
1
1
1
1
1
1
1
1
1
1
1
1
1
1
1
1
1
1
1
1
1
1
1
1
1
1
1
1
1
1
1
1
1
1
1
1
1
1
1
1
1
1
1
1
1
1
1
1
1
1
1
1
1
1
1
1
1
1
1
1
1
1
1
1
1
1
1
1
1
1
1
1
1
1
1
1
1
1
1
1
1
1
1
1
1
1
1
1
1
1
1
1
1
1
1
1
1
1
1
1
1
1
1
1
1
1
1
1
1
1
1
1
1
1
1
1
1
1
1
1
1
1
1
1
1
1
1
1
1
1
1
1
1
1
1
1
1
1
1
1
1
1
1
1
1
1
1
1
1
1
1
1
1
1
1
1
1
1
1
1
1
1
1
1
1
1
1
1
1
1
1
1
1
1
1
1
1
1
1
1
1
1
1
1
1
1
1
1
1
1
1
1
1
1
1
1
1
1
1
1
1
1
1
1
1
1
1
1
1
1
1
1
1
1
1
1
1
1
1
1
1
1
1
1
1
1
1
1
1
1
1
1
1
1
1
1
1
1
1
1
1
1
1
1
1
1
1
1
1
1
1
1
1
1
1
1
1
1
1
1
1
1
1
1
1
1
1
1
1
1
1
1
1
1
1
1
1
1
1
1
1
1
1
1
1
1
1
1
1
1
1
1
1
1
1
1
1
1
1
1
1
1
1
1
1
1
1
1
1
1
1
1
1
1
1
1
1
1
1
1
1
1
1
1
1
1
1
1
1
1
1
1
1
1
1
1
1
1
1
1
1
1
1
1
1
1
1
1
1
1
1
1
1
1
1
1
1
1
1
1
1
1
1
1
1
1
1
1
1
1
1
1
1
1
1
1
1
1
1
1
1
1
1
1
1
1
1
1
1
1
1
1
1
1
1
1
1
1
1
1
1
1
1
1
1
1
1
1
1
1
1
1
1
1
1
1
1
1
1
1
1
1
1
1
1
1
1
1
1
1
1
1
1
1
1
1
1
1
1
1
1
1
1
1
1
1
1
1
1
1
1
1
1
1
1
1
1
1
1
1
1
1
1
1
1
1
1
1
1
1
1
1
1
1
1
1
1
1
1
1
1
1
1
1
1
1
1
1
1
1
1
1
1
1
1
1
1
1
1
1
1
1
1
1
1
1
1
1
1
1
1
1
1
1
1
1
1
1
1
1
1
1
1
1
1
1
1
1
1
1
1
1
1
1
1
1
1
1
1
1
1
1
1
1
1
1
1
1
1
1
1
1
1
1
1
1
1
1
1
1
1
1
1
1
1
1
1
1
1
1
1
1
1
1
1
1
1
1
1
1
1
1
1
1
1
1
1
1
1
1
1
1
1
1
1
1
1
1
1
1
1
1
1
1
1
1
1
1
1
1
1
1
1
1
1
1
1
1
1
1
1
1
1
1
1
1
1
1
1
1
1
1
1
1
1
1
1
1
1
1
1
1
1
1
1
1
1
1
1
1
1
1
1
1
1
1
1
1
1
1
1
1
1
1
1
1
1
1
1
1
1
1
1
1
1
1
1
1
1
1
1
1
1
1
1
1
1
1
1
1
1
1
1
1
1
1
1
1
1
1
1
1
1
1
1
1
1
1
1
1
1
1
1
1
1
1
1
1
1
1
1
1
1
1
1
1
1
1
1
1
1
1
1
1
1
1
1
1
1
1
1
1
1
1
1
1
1
1
1
1
1
1
1
1
1
1
1
1
1
1
1
1
1
1
1
1
1
1
1
1
1
1
1
1
1
1
1
1
1
1
1
1
1
1
1
1
1
1
1
1
1
1
1
1
1
1
1
1
1
1
1
1
1
1
1
1
1
1
1
1
1
1
1
1
1
1
1
1
1
1
1
1
1
1
1
1
1
1
1
1
1
1
1
1
1
1
1
1
1
1
1
1
1
1
1
1
1
1
1
1
1
1
1
1
1
1
1
1
1
1
1
1
1
1
1
1
1
1
1
1
1
1
1
1
1
1
1
1
1
1
1
1
1
1
1
1
1
1
1
1
1
1
1
1
1
1
1
1
1
1
1
1
1
1
1
1
1
1
1
1
1
1
1
1
1
1
1
1
1
1
1
1
1
1
1
1
1
1
1
1
1
1
1
1
1
1
1
1
1
1
1
1
1
1
1
1
1
1
1
1
1
1
1
1
1
1
1
1
1
1
1
1
1
1
1
1
1
1
1
1
1
1
1
1
1
1
1
1
1
1
1
1
1
1
1
1
1
1
1
1
1
1
1
1
1
1
1
1
1
1
1
1
1
1
1
1
1
1
1
1
1
1
1
1
1
1
1
1
1
1
1
1
1
1
1
1
1
1
1
1
1
1
1
1
1
1
1
1
1
1
1
1
1
1
1
1
1
1
1
1
1
1
1
1
1
1
1
1
1
1
1
1
1
1
1
1
1
1
1
1
1
1
1
1
1
1
1
1
1
1
1
1
1
1
1
1
1
1
1
1
1
1
1
1
1
1
1
1
1
1
1
1
1
1
1
1
1
1
1
1
1
1
1
1
1
1
1
1
1
1
1
1
1
1
1
1
1
1
1
1
1
1
1
1
1
1
1
1
1
1
1
1
1
1
1
1
1
1
1
1
1
1
1
1
1
1
1
1
1
1
1
1
1
1
1
1
1
1
1
1
1
1
1
1
1
1
1
1
1
1
1
1
1
1
1
1
1
1
1
1
1
1
1
1
1
1
1
1
1
1
1
1
1
1
1
1
1
1
1
1
1
1
1
1
1
1
1
1
1
1
1
1
1
1
1
1
1
1
1
1
1
1
1
1
1
1
1
1
1
1
1
1
1
1
1
1
1
1
1
1
1
1
1
1
1
1
1
1
1
1
1
1
1
1
1
1
1
1
1
1
1
1
1
1
1
1
1
1
1
1
1
1
1
1
1
1
1
1
1
1
1
1
1
1
1
1
1
1
1
1
1
1
1
1
1
1
1
1
1
1
1
1
1
1
1
1
1
1
1
1
1
1
1
1
1
1
1
1
1
1
1
1
1
1
1
1
1
1
1
1
1
1
1
1
1
1
1
1
1
1
1
1
1
1
1
1
1
1
1
1
1
1
1
1
1
1
1
1
1
1
1
1
1
1
1
1
1
1
1
1
1
1
1
1
1
1
1
1
1
1
1
1
1
1
1
1
1
1
1
1
1
1
1
1
1
1
1
1
1
1
1
1
1
1
1
1
1
1
1
1
1
1
1
1
1
1
1
1
1
1
1
1
1
1
1
1
1
1
1
1
1
1
1
1
1
1
1
1
1
1
1
1
1
1
1
1
1
1
1
1
1
1
1
1
1
1
1
1
1
1
1
1
1
1
1
1
1
1
1
1
1
1
1
1
1
1
1
1
1
1
1
1
1
1
1
1
1
1
1
1
1
1
1
1
1
1
1
1
1

SCALARS density double 1
LOOKUP_TABLE default
0.999972
0.999972
0.999972
0.999972
0.999972
0.999972
0.999972
0.999972
0.999972
0.999972
0.999972
0.999972
0.999972
0.999972
0.999972
0.999972
0.999972
0.999972
0.999972
0.999972
0.999972
0.999972
0.999972
0.999972
0.999972
0.999972
0.999972
0.999972
0.999972
0.999972
0.999972
0.999972
0.999972
0.999972
0.999972
0.999972
0.999972
0.999972
0.999972
0.999972
0.999972
0.999972
0.999972
0.999972
0.999972
0.999972
0.999972
0.999972
0.999972
0.999972
0.999972
0.999972
0.999972
0.999972
0.999972
0.999972
0.999972
0.999972
0.999972
0.999972
0.999972
0.999972
0.999972
0.999972
0.999972
0.999972
0.999972
0.999972
0.999972
0.999972
0.999972
0.999972
0.999972
0.999972
0.999972
0.999972
0.999972
0.999972
0.999972
0.999972
0.999972
0.999972
0.999972
0.999972
0.999972
0.999972
0.999972
0.999972
0.999972
0.999972
0.999972
0.999972
0.999972
0.999972
0.999972
0.999972
0.999972
0.999972
0.999972
0.999972
0.999972
0.999972
0.999972
0.999972
0.999972
0.999972
0.999972
0.999972
0.999972
0.999972
0.999972
0.999972
0.999972
0.999972
0.999972
0.999972
0.999972
0.999972
0.999972
0.999972
0.999972
0.999972
0.999972
0.999972
0.999972
0.999972
0.999972
0.999972
0.999972
0.999972
0.999972
0.999972
0.999972
0.999972
0.999972
0.999972
0.999972
0.999972
0.999972
0.999972
0.999972
0.999972
0.999972
0.999972
0.999972
0.999972
0.999972
0.999972
0.999972
0.999972
0.999972
0.999972
0.999972
0.999972
0.999972
0.999972
0.999972
0.999972
0.999972
0.999972
0.999972
0.999972
0.999972
0.999972
0.999972
0.999972
0.999972
0.999972
0.999972
0.999972
0.999972
0.999972
0.999972
0.999972
0.999972
0.999972
0.999972
0.999972
0.999972
0.999972
0.999972
0.999972
0.999972
0.999972
0.999972
0.999972
0.999972
0.999972
0.999972
0.999972
0.999972
0.999972
0.999972
0.999972
0.999972
0.999972
0.999972
0.999972
0.999972
0.999972
0.999972
0.999972
0.999972
0.999972
0.999972
0.999972
0.999972
0.999972
0.999972
0.999972
0.999972
0.999972
0.999972
0.999972
0.999972
0.999972
0.999972
0.999972
0.999972
0.999972
0.999972
0.999972
0.999972
0.999972
0.999972
0.999972
0.999972
0.999972
0.999972
0.999972
0.999972
0.999972
0.999972
0.999972
0.999972
0.999972
0.999972
0.999972
0.999972
0.999972
0.999972
0.999972
0.999972
0.999972
0.999972
0.999972
0.999972
0.999972
0.999972
0.999972
0.999972
0.999972
0.999972
0.999972
0.999972
0.999972
0.999972
0.999972
0.999972
0.999972
0.999972
0.999972
0.999972
0.999972
0.999972
0.999972
0.999972
0.999972
0.999972
0.999972
0.999972
0.999972
0.999972
0.999972
0.999972
0.999972
0.999972
0.999972
0.999972
0.999972
0.999972
0.999972
0.999972
0.999972
0.999972
0.999972
0.999972
0.999972
0.999972
0.999972
0.999972
0.999972
0.999972
0.999972
0.999972
0.999972
0.999972
0.999972
0.999972
0.999972
0.999972
0.999972
0.999972
0.999972
0.999972
0.999972
0.999972
0.999972
0.999972
0.999972
0.999972
0.999972
0.999972
0.999972
0.999972
0.999972
0.999972
0.999972
0.999972
0.999972
0.999972
0.999972
0.999972
0.999972
0.999972
0.999972
0.999972
0.999972
0.999972
0.999972
0.999972
0.999972
0.999972
0.999972
0.999972
0.999972
0.999972
0.999972
0.999972
0.999972
0.999972
0.999972
0.999972
0.999972
0.999972
0.999972
0.999972
0.999972
0.999972
0.999972
0.999972
0.999972
0.999972
0.999972
0.999972
0.999972
0.999972
0.999972
0.999972
0.999972
0.999972
0.999972
0.999972
0.999972
0.999972
0.999972
0.999972
0.999972
0.999972
0.999972
0.999972
0.999972
0.999972
0.999972
0.999972
0.999972
0.999972
0.999972
0.999972
0.999972
0.999972
0.999972
0.999972
0.999972
0.999972
0.999972
0.999972
0.999972
0.999972
0.999972
0.999972
0.999972
0.999972
0.999972
0.999972
0.999972
0.999972
0.999972
0.999972
0.999972
0.999972
0.999972
0.999972
0.999972
0.999972
0.999972
0.999972
0.999972
0.999972
0.999972
0.999972
0.999972
0.999972
0.999972
0.999972
0.999972
0.999972
0.999972
0.999972
0.999972
0.999972
0.999972
0.999972
0.999972
0.999972
0.999972
0.999972
0.999972
0.999972
0.999972
0.999972
0.999972
0.999972
0.999972
0.999972
0.999972
0.999972
0.999972
0.999972
0.999972
0.999972
0.999972
0.999972
0.999972
0.999972
0.999972
0.999972
0.999972
0.999972
0.999972
0.999972
0.999972
0.999972
0.999972
0.999972
0.999972
0.999972
0.999972
0.999972
0.999972
0.999972
0.999972
0.999972
0.999972
0.999972
0.999972
0.999972
0.999972
0.999972
0.999972
0.999972
0.999972
0.999972
0.999972
0.999972
0.999972
0.999972
0.999972
0.999972
0.999972
0.999972
0.999972
0.999972
0.999972
0.999972
0.999972
0.999972
0.999972
0.999972
0.999972
0.999972
0.999972
0.999972
0.999972
0.999972
0.999972
0.999972
0.999972
0.999972
0.999972
0.999972
0.999972
0.999972
0.999972
0.999972
0.999972
0.999972
0.999972
0.999972
0.999972
0.999972
0.999972
0.999972
0.999972
0.999972
0.999972
0.999972
0.999972
0.999972
0.999972
0.999972
0.999972
0.999972
0.999972
0.999972
0.999972
0.999972
0.999972
0.999972
0.999972
0.999972
0.999972
0.999972
0.999972
0.999972
0.999972
0.999972
0.999972
0.999972
0.999972
0.999972
0.999972
0.999972
0.999972
0.999972
0.999972
0.999972
0.999972
0.999972
0.999972
0.999972
0.999972
0.999972
0.999972
0.999972
0.999972
0.999972
0.999972
0.999972
0.999972
0.999972
0.999972
0.999972
0.999972
0.999972
0.999972
0.999972
0.999972
0.999972
0.999972
0.999972
0.999972
0.999972
0.999972
0.999972
0.999972
0.999972
0.999972
0.999972
0.999972
0.999972
0.999972
0.999972
0.999972
0.999972
0.999972
0.999972
0.999972
0.999972
0.999972
0.999972
0.999972
0.999972
0.999972
0.999972
0.999972
0.999972
0.999972
0.999972
0.999972
0.999972
0.999972
0.999972
0.999972
0.999972
0.999972
0.999972
0.999972
0.999972
0.999972
0.999972
0.999972
0.999972
0.999972
0.999972
0.999972
0.999972
0.999972
0.999972
0.999972
0.999972
0.999972
0.999972
0.999972
0.999972
0.999972
0.999972
0.999972
0.999972
0.999972
0.999972
0.999972
0.999972
0.999972
0.999972
0.999972
0.999972
0.999972
0.999972
0.999972
0.999972
0.999972
0.999972
0.999972
0.999972
0.999972
0.999972
0.999972
0.999972
0.999972
0.999972
0.999972
0.999972
0.999973
0.999973
0.999973
0.999973
0.999973
0.999973
0.999972
0.999972
0.999972
0.999972
0.999972
0.999972
0.999972
0.999972
0.999972
0.999972
0.999972
0.999972
0.999972
0.999972
0.999972
0.999972
0.999972
0.999972
0.999972
0.999972
0.999972
0.999972
0.999972
0.999972
0.999972
0.999972
0.999972
0.999972
0.999972
0.999972
0.999972
0.999972
0.999972
0.999972
0.999972
0.999972
0.999972
0.999972
0.999972
0.999972
0.999972
0.999971
0.999972
0.999972
0.999972
0.999972
0.999972
0.999972
0.999972
0.999972
0.999972
0.999972
0.999972
0.999972
0.999972
0.999972
0.999973
0.999973
0.999973
0.999973
0.999973
0.999973
0.999973
0.999973
0.999973
0.999972
0.999972
0.999972
0.999972
0.999972
0.999972
0.999972
0.999972
0.999972
0.999972
0.999972
0.999972
0.999972
0.999972
0.999972
0.999972
0.999972
0.999972
0.999972
0.999972
0.999972
0.999972
0.999972
0.999972
0.999972
0.999973
0.999972
0.999975
0.999972
0.999972
0.999972
0.999972
0.999972
0.999972
0.999972
0.999972
0.999972
0.999972
0.999972
0.999972
0.999972
0.999972
0.999972
0.999973
0.999973
0.999974
0.999974
0.999973
0.999973
0.999973
0.999973
0.999971
0.999971
0.999972
0.999971
0.999971
0.999971
0.999971
0.999972
0.999972
0.999972
0.999973
0.999973
0.999973
0.999973
0.999973
0.999973
0.999973
0.999973
0.999973
0.999973
0.999973
0.999973
0.999973
0.999971
0.999974
0.999972
0.999967
0.999973
0.999973
0.999973
0.999973
0.999973
0.999973
0.999973
0.999973
0.999973
0.999972
0.999972
0.999972
0.999971
0.999971
0.999971
0.999972
0.999973
0.999971
0.99997
0.999973
0.999973
0.99997
0.99997
0.999974
0.999975
0.999971
0.999972
0.999975
0.999974
0.999972
0.999973
0.999974
0.999974
0.999974
0.999974
0.999973
0.999973
0.999972
0.999972
0.999972
0.999972
0.999971
0.999971
0.999971
0.999972
0.999972
0.99997
0.999972
0.999975
0.999972
0.999974
0.999972
0.999971
0.999972
0.999972
0.999972
0.999972
0.999973
0.999973
0.999973
0.999974
0.999974
0.999972
0.999974
0.999974
0.999967
0.999971
0.999975
0.999963
0.999962
0.999974
0.999969
0.999966
0.999979
0.999977
0.999971
0.999983
0.999982
0.99997
0.999974
0.999978
0.99997
0.99997
0.999971
0.999969
0.999969
0.999969
0.999969
0.99997
0.99997
0.99997
0.999971
0.999971
0.999971
0.999971
0.99997
0.99998
0.999969
0.999968
0.999975
0.999969
0.999973
0.999971
0.999971
0.999971
0.999971
0.999971
0.99997
0.999972
0.999971
0.99997
0.999978
0.999971
0.999963
0.999988
0.999984
0.999948
0.99997
1
0.999961
0.999946
0.999987
0.999991
0.999953
0.999958
0.999998
0.999983
0.999944
0.999974
0.999995
0.999958
0.999956
0.99998
0.999972
0.999966
0.999974
0.999974
0.999974
0.999976
0.999975
0.999976
0.999976
0.999976
0.999975
0.999974
0.999973
0.999979
0.999971
0.99997
0.999977
0.99997
0.999972
0.999973
0.999974
0.999973
0.999972
0.999974
0.999968
0.999971
0.999977
0.999955
0.999963
1
0.999956
0.999925
1.00001
1.00001
0.999918
0.99998
1.00003
0.999956
0.999968
0.999995
0.999949
0.999975
0.999987
0.999917
0.999965
1.00002
0.999937
0.999933
1.00002
0.99999
0.999945
0.999985
0.999993
0.999971
0.999977
0.999979
0.999973
0.999974
0.999972
0.999971
0.999972
0.99997
0.999978
0.999953
0.999978
0.99997
0.99996
0.999973
0.999971
0.999972
0.999972
0.999974
0.999967
0.99998
0.999975
0.99995
0.999996
1.00001
0.999901
0.999953
1.00008
0.99994
0.999859
1.00006
1.00004
0.999855
0.99998
1.00009
0.999927
0.999891
1.00005
1.00002
0.999856
0.999966
1.00009
0.999913
0.999892
1.00008
1
0.99987
0.999991
1.00004
0.999933
0.999946
0.999989
0.999964
0.999959
0.999972
0.999966
0.999969
0.999969
0.999972
0.999979
0.999975
0.999985
0.999964
0.999972
0.99997
0.999973
0.999968
0.999967
0.999984
0.999958
0.999959
1.00003
0.999961
0.999876
1.00007
1.00009
0.99982
0.999938
1.00018
0.999919
0.999803
1.00009
1.00004
0.999828
0.999981
1.00003
0.999948
0.999993
0.999924
0.999964
1.00011
0.999911
0.999857
1.00013
1.00002
0.999776
1
1.00011
0.999859
0.999875
1.00006
0.999982
0.999918
0.999988
0.999989
0.999966
0.999982
0.999977
0.999979
0.999966
0.999991
0.999972
0.999935
0.999961
0.999959
0.999979
0.999988
0.999954
0.999998
1.00003
0.999878
0.999943
1.00016
0.999914
0.999748
1.00013
1.00013
0.999731
0.999937
1.00022
0.999883
0.999773
1.00017
1.00005
0.99972
1.00003
1.00016
0.999785
0.999911
1.00021
0.999899
0.99978
1.00016
1.00005
0.999745
1.00001
1.0002
0.999827
0.99983
1.00019
1.00003
0.9998
1.00001
1.00006
0.999924
0.999949
0.999989
0.999959
0.999964
0.999974
0.999987
0.999998
0.999889
0.999917
0.999935
0.999923
1.00001
0.999949
0.999859
1.00009
1.0001
0.999704
0.999915
1.00028
0.999861
0.999692
1.00017
1.00008
0.999703
0.999954
1.00023
0.999922
0.999776
1.00011
1.0001
0.999838
0.999886
1.00006
1.0001
0.99985
0.999851
1.00016
1.00002
0.999737
0.999993
1.00022
0.999873
0.999802
1.00022
1.00006
0.99969
1.00002
1.00021
0.999846
0.999856
1.00007
0.999986
0.999936
1.00001
1.00002
1.00001
1.00007
0.999835
0.999847
0.999918
0.999811
0.999903
1.00013
0.999847
0.999688
1.00022
1.00015
0.999629
0.999971
1.00027
0.999834
0.99978
1.0002
1.00006
0.999773
0.999952
1.00019
0.999895
0.999791
1.00022
0.999959
0.999721
1.00022
1
0.999733
1.00014
1.00004
0.999774
0.999994
1.00014
0.999888
0.999765
1.00013
1.00008
0.999708
0.999973
1.00027
0.999802
0.999754
1.00023
1.00008
0.999837
1.00003
1.00013
1.00003
1.00009
1.0001
0.99985
0.999681
0.999895
0.999919
0.999585
0.999936
1.00033
0.999794
0.99968
1.00027
1.00007
0.999715
1.00006
1.00021
0.999861
0.999861
1.0001
1.00003
0.999839
0.999879
1.00015
1.00003
0.999653
1.00012
1.00028
0.999664
0.999828
1.00028
0.99991
0.999808
1.00006
1.00008
0.999918
0.999867
1.00008
1.00006
0.999764
0.999905
1.00019
0.999883
0.999727
1.00023
1.00011
0.999656
1.00001
1.00031
1.00002
1.00002
1.00024
1.00005
0.999845
0.999421
0.999462
0.99997
0.999823
0.999374
0.999879
1.00023
0.999749
0.9998
1.00018
0.999955
0.999788
0.999966
1.00007
0.999907
0.999896
1.00007
0.999954
0.999897
0.999953
1.00006
0.999901
0.999952
1.0001
0.999864
0.999967
1.00004
0.999906
0.999992
1.00004
0.999995
0.999894
1.00005
1.00002
0.999867
0.999997
1.00013
0.999956
0.999784
1.00011
1.00013
0.999728
1.00006
1.00046
1.00008
0.999974
1.0004
1.00044
1.00007
0.999219
0.999635
0.999091
0.998966
0.999652
0.999556
0.999251
0.999787
0.999968
0.999759
0.999823
1.00004
0.999966
0.999896
0.99994
1.00008
0.999888
0.999906
1.00021
0.999997
0.999843
0.999844
1.0003
0.999908
0.999569
1.00037
1.00005
0.999656
1.0001
1.00009
0.999952
0.999741
1.00003
1.00004
0.99984
1
1.00005
0.999929
0.999894
1.00013
1.00013
0.999945
1.00015
1.00057
1.00029
1.00023
1.00083
1.00067
1.00022
1.00059
0.998463
0.999529
0.999169
0.998558
0.998693
0.999224
0.999186
0.999222
0.999608
0.999889
0.999878
0.999878
1.00011
0.999976
0.999829
0.999973
1.00023
0.999775
0.999896
1.00011
0.999896
1.00006
0.999914
0.999924
1.00011
0.999822
1.00003
1.00003
0.999868
1.00005
0.999842
1.00003
1.00016
0.999707
0.999966
1.00013
0.99993
0.999825
1.00009
1.00003
0.999967
1.00028
1.00063
1.00055
1.00057
1.00098
1.00105
1.00049
1.00029
1.0011
0.999027
0.997873
0.997949
0.99862
0.998239
0.998051
0.998631
0.998759
0.998914
0.999332
0.999788
0.999532
0.999786
1.00025
0.999959
0.999763
0.999831
1.00021
0.999724
0.999898
1.00025
0.999926
0.999729
1.00003
1.00027
0.999695
0.999882
1.00021
1.00004
0.999707
1.00002
1.00023
0.999713
1.0001
1.0002
0.999951
0.999686
1.00015
1.00034
1.00003
1.0005
1.00086
1.00085
1.00092
1.00149
1.00122
1.00088
1.00141
1.00162
1.00056
0.997876
0.997071
0.997532
0.997821
0.997517
0.997342
0.997569
0.998073
0.998014
0.998351
0.999154
0.999761
0.999367
0.999719
1.00017
0.99998
0.999909
0.999949
1.00024
0.999815
0.999905
1.00001
1.00007
1.00001
0.999699
1.00025
0.999936
0.999885
0.999936
1.00002
1.00013
0.999674
0.999981
1.00006
0.999908
0.999731
1.00021
1.00048
1.00004
1.0006
1.00128
1.00143
1.00134
1.0018
1.00192
1.00164
1.00155
1.00165
1.00208
1.00153
0.996266
0.998293
0.997831
0.996707
0.997498
0.997757
0.997068
0.997232
0.997996
0.997826
0.998119
0.998945
0.999635
0.999284
0.999975
1.00013
0.999977
0.999809
0.999847
1.00031
0.999633
0.999985
1.00025
0.999861
0.999771
1.00013
1.00012
0.999696
0.999915
1.00031
0.999633
1.00007
1.00018
0.999894
0.999812
0.999983
1.0005
1.00013
1.0007
1.00144
1.00152
1.00131
1.00202
1.00204
1.00145
1.00162
1.00254
1.00139
1.00098
1.00271
0.997218
0.998217
0.997094
0.997199
0.998487
0.997773
0.997297
0.996837
0.997147
0.997407
0.99733
0.997971
0.99868
0.999565
0.998967
0.999806
1.00004
1.00006
0.999781
0.999774
1.00031
0.999941
0.999722
1
1.00021
0.999752
0.999921
1.0002
1.00003
0.999639
1.00014
1.00019
0.999854
0.999887
1.00007
1.0008
1.00018
1.00096
1.00153
1.00189
1.00182
1.00208
1.00232
1.00189
1.00175
1.00107
1.00215
1.00221
1.00149
1.00195
0.997901
0.996451
0.997793
0.998641
0.997978
0.996926
0.998217
0.998185
0.996612
0.996987
0.997406
0.997318
0.997705
0.998573
0.999729
0.999158
0.999937
1.00011
1.0001
0.999822
1.00007
1.00002
0.999763
1.00008
1.0001
0.999875
0.999839
1.00018
0.999934
0.999843
1.00013
0.999809
0.999773
0.999947
1.00061
1.00007
1.00097
1.00168
1.00197
1.00183
1.0023
1.00266
1.00137
1.00147
1.00271
1.00184
1.00141
1.00202
1.00335
1.0017
0.997216
0.996972
0.998617
0.997409
0.998007
0.998036
0.998655
0.997782
0.998067
0.997168
0.997135
0.997197
0.997674
0.997714
0.998761
0.999575
0.999079
0.999865
1.00011
1.00001
0.999657
0.999821
1.00043
0.999943
0.999686
1.0002
1.00005
0.999523
1.00005
1.00028
0.999911
0.99981
1.00005
1.00069
1.00021
1.00076
1.00174
1.00167
1.00204
1.00222
1.00226
1.00161
1.00205
1.00147
1.00187
1.0019
1.00274
1.0013
1.00275
1.00283
0.996883
0.997879
0.997201
0.995572
0.997401
0.998322
0.997339
0.996988
0.998318
0.998445
0.996017
0.997108
0.996855
0.997373
0.99751
0.99884
0.999723
0.999214
0.999808
1.00016
1.00006
0.999889
0.99995
0.999867
0.999956
0.999969
1.00008
0.999974
1.00004
0.999913
0.999769
1.00006
1.00058
1.00007
1.00073
1.00194
1.00198
1.00243
1.00233
1.00344
1.00155
1.00161
1.00294
1.00257
1.00183
1.00232
1.00418
1.0026
1.00208
1.003
0.998746
0.99676
0.996849
0.998221
0.997372
0.996345
0.997971
0.998762
0.997817
0.997744
0.99872
0.996641
0.997181
0.997273
0.997783
0.998049
0.99904
0.999946
0.999502
0.999863
1.00023
1.0001
0.999502
1.00001
1.00032
0.9997
0.999854
1.00042
0.999885
0.999668
0.999991
1.00035
0.999837
1.00054
1.00144
1.00167
1.00207
1.00233
1.00298
1.00125
1.00223
1.0023
1.00132
1.00193
1.00357
1.00234
1.00167
1.00295
1.00329
1.00128
0.998295
0.99612
0.998193
0.998578
0.997678
0.995655
0.998257
0.998203
0.996749
0.997245
0.998807
0.998025
0.996303
0.996784
0.997106
0.997593
0.998082
0.999175
0.999819
0.999521
0.999668
1.0001
1.00011
1.00016
0.999856
1.00005
0.999783
0.999851
0.999802
1.00018
1.00037
0.999975
1.00048
1.00149
1.00191
1.00225
1.00276
1.00336
1.00202
1.00141
1.00271
1.00317
1.00189
1.00188
1.0041
1.00243
1.00178
1.00184
1.00389
1.00203
0.996209
0.997473
0.998441
0.994457
0.996973
0.997584
0.99585
0.995741
0.997658
0.998685
0.996442
0.997385
0.998211
0.996405
0.996867
0.997405
0.99812
0.998543
0.999584
1.00018
0.999726
0.999787
1.00025
0.999883
0.999572
1.00029
1.00013
0.999684
1.00009
1.0002
0.999698
1.00011
1.00108
1.00141
1.00208
1.00271
1.0033
1.0019
1.00254
1.00361
1.00145
1.00212
1.0041
1.00394
1.00228
1.00303
1.00557
1.00163
1.00263
1.00382
0.996425
0.997654
0.997723
0.996097
0.998004
0.998044
0.997855
0.996532
0.998547
0.997684
0.997285
0.998157
0.998453
0.997806
0.996319
0.997235
0.997873
0.998455
0.99894
0.999615
1.00022
0.999825
0.999655
0.999807
1.00022
0.999798
1.00007
1.0002
1.00013
0.999669
1.00008
1.00073
1.00116
1.00169
1.00231
1.00344
1.00235
1.00181
1.0019
1.00248
1.00231
1.00156
1.00316
1.00211
1.00193
1.00194
1.00337
1.00234
1.00252
1.00338
0.999017
0.994428
0.996418
0.997968
0.997032
0.995392
0.998222
0.998096
0.995086
0.996721
0.998493
0.997577
0.995713
0.997025
0.997491
0.995918
0.996784
0.998095
0.998803
0.99909
0.99987
1.00019
0.999924
1.00008
1.00042
0.99954
0.999769
1.00003
0.999733
0.999871
1.0006
1.00089
1.00146
1.00283
1.00395
1.00266
1.0029
1.00413
1.00273
1.00155
1.00337
1.00492
1.00177
1.00192
1.00469
1.00294
1.0018
1.00372
1.00538
1.00105
0.996482
0.995636
0.997853
0.996346
0.997066
0.996669
0.996872
0.996995
0.996981
0.996835
0.997693
0.997309
0.998151
0.998124
0.997576
0.997356
0.996985
0.997878
0.999166
0.999517
0.999431
0.999837
1.00022
0.999875
0.999629
1.0002
1.00013
0.999749
0.999947
1.00036
1.00031
1.00056
1.0018
1.00286
1.00272
1.00256
1.00214
1.00185
1.00266
1.00218
1.0029
1.00304
1.00289
1.00328
1.00305
1.00279
1.00371
1.00189
1.00377
1.00365
0.993972
0.998156
0.997866
0.992968
0.997702
0.998839
0.995459
0.995429
0.998506
0.998357
0.995133
0.997639
0.998991
0.996927
0.995991
0.996935
0.99706
0.996577
0.997737
0.999378
0.999691
0.999643
0.999885
0.999915
0.999609
1.00036
1.00005
0.999918
1.00017
1.00016
1.00027
1.0018
1.0033
1.00311
1.00319
1.00406
1.00333
1.00125
1.00219
1.00471
1.00162
1.00158
1.00459
1.00443
1.00129
1.00237
1.00691
1.00224
1.00185
1.00594
0.99982
0.99455
0.997638
0.996888
0.99746
0.996182
0.996685
0.99756
0.997203
0.997353
0.997813
0.997148
0.997119
0.99726
0.997953
0.997431
0.996607
0.99753
0.998098
0.999012
0.999936
1.00014
0.999791
1.00025
1.00031
0.999691
0.999534
1.00006
0.999795
0.999805
1.00068
1.00185
1.0026
1.00361
1.00302
1.00233
1.00272
1.00278
1.00271
1.00223
1.00281
1.00299
1.00216
1.00308
1.00405
1.00263
1.00277
1.00296
1.00565
1.00027
0.996694
0.993064
0.995441
0.998789
0.996166
0.993673
0.99841
0.998495
0.995505
0.996236
0.997859
0.997287
0.995664
0.997525
0.998156
0.996442
0.996108
0.997334
0.997996
0.998289
0.999028
0.999928
0.999842
0.999797
1.00011
0.999734
1.00009
1.00014
0.99984
1.00063
1.00165
1.00215
1.00281
1.00418
1.00406
1.00223
1.00238
1.00428
1.00286
1.00209
1.00371
1.00458
1.00169
1.00161
1.00627
1.0039
1.00152
1.00518
1.00638
1.00375
0.995251
0.997813
0.998898
0.992852
0.997347
0.998767
0.995845
0.996245
0.997854
0.998121
0.996235
0.997727
0.999045
0.997444
0.99681
0.99792
0.998009
0.996816
0.997582
0.999213
0.999613
0.999847
1.00029
0.999777
0.999739
1.00017
1.00024
0.99954
0.999879
1.00031
1.00077
1.00252
1.00372
1.00277
1.00241
1.00304
1.00238
1.00103
1.00238
1.00393
1.00199
1.0021
1.00394
1.00429
1.00128
1.00328
1.00795
1.00159
1.00291
1.0056
0.995218
0.999707
0.996498
0.992457
0.997397
0.998239
0.995166
0.995822
0.998216
0.997461
0.99541
0.997472
0.997775
0.995867
0.996145
0.997361
0.996878
0.996064
0.997252
0.998668
0.999242
0.999208
0.999879
1.00013
0.999948
1
0.999703
0.999813
1.00072
1.00084
1.00142
1.00317
1.00491
1.00409
1.00301
1.00402
1.00424
1.00214
1.00206
1.00443
1.00284
1.00181
1.00415
1.00495
1.00186
1.00306
1.00773
1.00378
1.00212
1.00585
1.00129
0.986208
0.993849
1.00038
0.995726
0.993136
0.99722
0.999628
0.995217
0.99666
0.999339
0.998418
0.99634
0.997483
0.998811
0.996893
0.996272
0.99826
0.998956
0.99854
0.999717
1.00027
0.999976
1.00019
1.00012
0.999787
0.999644
0.999974
0.999608
0.999988
1.00177
1.00194
1.00261
1.00437
1.00367
1.00106
1.00197
1.00373
1.002
1.00096
1.00345
1.00541
1.00064
1.00296
1.00698
1.00493
1.00005
1.00664
1.01306
0.997588
0.992854
0.991883
0.997613
0.997149
0.99531
0.995602
0.996917
0.996775
0.996185
0.99697
0.99809
0.997264
0.996709
0.99678
0.996271
0.996482
0.997053
0.997125
0.997336
0.99809
0.999199
0.999787
0.999524
0.999577
0.999819
1.00005
1.00036
1.00054
1.00017
1.00085
1.00256
1.00379
1.00429
1.00436
1.00439
1.00345
1.0025
1.00314
1.00286
1.00153
1.00267
1.00434
1.00342
1.0027
1.00464
1.00555
1.00368
1.00296
1.00825
1.00904
0.989536
1.00546
0.996814
0.989759
0.996393
0.999889
0.99406
0.994632
0.998676
0.998184
0.996319
0.998191
0.998796
0.996237
0.995365
0.997507
0.99767
0.996762
0.99814
1.00007
0.999663
0.99955
1.00013
1.00016
1.00001
0.999921
0.99972
0.999659
1.00057
1.00069
1.00008
1.00265
1.00475
1.00361
1.00293
1.00453
1.0033
1.0004
1.00178
1.0045
1.00173
1.00154
1.00639
1.00631
0.998956
1.00487
1.01172
1.00157
0.995206
1.02302

VECTORS velocity double
-1.97764e-16 -1.59599e-16 0
-8.67386e-17 -5.89822e-17 0
6.59213e-17 1.07556e-16 0
1.04086e-16 1.31843e-16 0
5.55127e-17 -1.80416e-16 0
-1.83886e-16 3.12259e-17 0
9.02081e-17 -1.04086e-17 0
1.00617e-16 -4.16345e-17 0
1.38782e-17 -1.38782e-17 0
5.20431e-17 6.93909e-17 0
7.28604e-17 2.42868e-17 0
4.16345e-17 -1.38782e-17 0
-1.04086e-16 1.70008e-16 0
2.42868e-17 -5.89822e-17 0
1.5266e-16 -1.70008e-16 0
-1.59599e-16 -3.46954e-17 0
8.3269e-17 -1.73477e-17 0
-6.93909e-17 -1.00617e-16 0
-1.21434e-16 9.71472e-17 0
-1.70008e-16 1.04086e-16 0
-1.83886e-16 2.01234e-16 0
-5.55127e-17 3.46954e-16 0
3.46954e-18 1.5266e-16 0
-7.28604e-17 1.83886e-16 0
-2.42868e-17 1.04086e-16 0
1.63069e-16 3.0532e-16 0
-1.04086e-17 6.93909e-17 0
1.94294e-16 2.56746e-16 0
-1.73477e-17 1.5266e-16 0
-9.36777e-17 1.21434e-16 0
4.16345e-17 5.55127e-17 0
1.38782e-16 6.59213e-17 0
-7.28604e-17 1.38782e-16 0
1.73477e-16 1.70008e-16 0
2.77563e-17 -3.8165e-17 0
-3.8165e-17 4.85736e-17 0
-1.31843e-16 -1.38782e-17 0
-1.70008e-16 -1.73477e-17 0
-1.35312e-16 -5.89822e-17 0
1.17964e-16 3.57363e-16 0
-1.66538e-16 2.08173e-16 0
2.08173e-17 1.35312e-16 0
-6.59213e-17 3.12259e-17 0
4.51041e-17 2.39398e-16 0
2.42868e-17 -6.24518e-17 0
-6.93909e-18 4.16345e-17 0
1.38782e-16 -1.14495e-16 0
-2.42868e-17 7.633e-17 0
2.11642e-16 -1.07556e-16 0
-2.84503e-16 9.71472e-17 0
2.08173e-17 -6.24518e-17 0
4.16345e-17 -1.38782e-16 0
-7.633e-17 -1.87355e-16 0
6.93909e-17 -1.73477e-17 0
4.16345e-17 -1.97764e-16 0
-8.3269e-17 -3.46954e-17 0
-6.59213e-17 1.73477e-17 0
1.17964e-16 0 0
9.71472e-17 2.08173e-17 0
2.98381e-16 1.04086e-17 0
2.22051e-16 -1.17964e-16 0
2.74094e-16 -1.07556e-16 0
1.70008e-16 3.46954e-18 0
-6.93909e-17 2.01234e-16 0
1.73477e-16 -2.94911e-16 0
1.73477e-16 -1.80416e-16 0
1.42251e-16 -1.04086e-16 0
-3.46954e-18 -2.08173e-17 0
-2.77563e-16 1.94294e-16 0
-2.60216e-16 5.55127e-17 0
-1.11025e-16 1.87355e-16 0
3.12259e-17 1.94294e-16 0
-7.97995e-17 1.38782e-16 0
1.42251e-16 1.80416e-16 0
3.8165e-17 2.56746e-16 0
1.42251e-16 4.02467e-16 0
2.60216e-16 3.33076e-16 0
1.45721e-16 9.02081e-17 0
1.17964e-16 -8.67386e-17 0
5.89822e-17 2.15112e-16 0
-4.16345e-17 -1.38782e-17 0
1.31843e-16 2.2552e-16 0
1.80416e-16 2.04703e-16 0
8.67386e-17 5.55127e-17 0
1.14495e-16 -1.14495e-16 0
-8.67386e-17 2.42868e-17 0
-9.71472e-17 2.11642e-16 0
-1.31843e-16 -5.89822e-17 0
-3.15728e-16 1.63069e-16 0
-3.8165e-17 1.35312e-16 0
-3.12259e-16 4.16345e-17 0
-1.87355e-16 1.4919e-16 0
2.08173e-17 -6.59213e-17 0
1.04086e-17 -1.38782e-17 0
1.04086e-17 3.46954e-18 0
-8.3269e-17 -4.85736e-17 0
7.28604e-17 -2.42868e-16 0
-1.35312e-16 -8.3269e-17 0
0 -6.24518e-17 0
1.04086e-16 0 0
-1.07556e-16 -3.8165e-17 0
1.04086e-17 1.24904e-16 0
2.08173e-16 1.45721e-16 0
2.42868e-17 3.8165e-17 0
-8.67386e-17 1.4919e-16 0
-2.2552e-16 8.67386e-17 0
-4.51041e-17 -9.36777e-17 0
1.35312e-16 1.76947e-16 0
2.77563e-16 1.56129e-16 0
1.21434e-16 1.59599e-16 0
1.56129e-16 9.36777e-17 0
7.28604e-17 1.73477e-16 0
6.93909e-18 1.45721e-16 0
7.97995e-17 -1.45721e-16 0
6.93909e-17 -8.3269e-17 0
-7.28604e-17 1.00617e-16 0
5.55127e-17 3.46954e-17 0
6.93909e-18 2.60216e-16 0
-2.2552e-16 3.46954e-18 0