# vtk DataFile Version 4.0
SiwiRVisFile
ASCII
DATASET STRUCTURED_POINTS
DIMENSIONS 50 50 1
ORIGIN 0 0 0
SPACING 1 1 1
POINT_DATA 2500


SCALARS flags double 1
LOOKUP_TABLE default
1
1
1
1
1
1
1
1
1
1
1
1
1
1
1
1
1
1
1
1
1
1
1
1
1
1
1
1
1
1
1
1
1
1
1
1
1
1
1
1
1
1
1
1
1
1
1
1
1
1
1
1
1
1
1
1
1
1
1
1
1
1
1
1
1
1
1
1
1
1
1
1
1
1
1
1
1
1
1
1
1
1
1
1
1
1
1
1
1
1
1
1
1
1
1
1
1
1
1
1
1
1
1
1
1
1
1
1
1
1
1
1
1
1
1
1
1
1
1
1
1
1
1
1
1
1
1
1
1
1
1
1
1
1
1
1
1
1
1
1
1
1
1
1
1
1
1
1
1
1
1
1
1
1
1
1
1
1
1
1
1
1
1
1
1
1
1
1
1
1
1
1
1
1
1
1
1
1
1
1
1
1
1
1
1
1
1
1
1
1
1
1
1
1
1
1
1
1
1
1
1
1
1
1
1
1
1
1
1
1
1
1
1
1
1
1
1
1
1
1
1
1
1
1
1
1
1
1
1
1
1
1
1
1
1
1
1
1
1
1
1
1
1
1
1
1
1
1
1
1
1
1
1
1
1
1
1
1
1
1
1
1
1
1
1
1
1
1
1
1
1
1
1
1
1
1
1
1
1
1
1
1
1
1
1
1
1
1
1
1
1
1
1
1
1
1
1
1
1
1
1
1
1
1
1
1
1
1
1
1
1
1
1
1
1
1
1
1
1
1
1
1
1
1
1
1
1
1
1
1
1
1
1
1
1
1
1
1
1
1
1
1
1
1
1
1
1
1
1
1
1
1
1
1
1
1
1
1
1
1
1
1
1
1
1
1
1
1
1
1
1
1
1
1
1
1
1
1
1
1
1
1
1
1
1
1
1
1
1
1
1
1
1
1
1
1
1
1
1
1
1
1
1
1
1
1
1
1
1
1
1
1
1
1
1
1
1
1
1
1
1
1
1
1
1
1
1
1
1
1
1
1
1
1
1
1
1
1
1
1
1
1
1
1
1
1
1
1
1
1
1
1
1
1
1
1
1
1
1
1
1
1
1
1
1
1
1
1
1
1
1
1
1
1
1
1
1
1
1
1
1
1
1
1
1
1
1
1
1
1
1
1
1
1
1
1
1
1
1
1
1
1
1
1
1
1
1
1
1
1
1
1
1
1
1
1
1
1
1
1
1
1
1
1
1
1
1
1
1
1
1
1
1
1
1
1
1
1
1
1
1
1
1
1
1
1
1
1
1
1
1
1
1
1
1
1
1
1
1
1
1
1
1
1
1
1
1
1
1
1
1
1
1
1
1
1
1
1
1
1
1
1
1
1
1
1
1
1
1
1
1
1
1
1
1
1
1
1
1
1
1
1
1
1
1
1
1
1
1
1
1
1
1
1
1
1
1
1
1
1
1
1
1
1
1
1
1
1
1
1
1
1
1
1
1
1
1
1
1
1
1
1
1
1
1
1
1
1
1
1
1
1
1
1
1
1
1
1
1
1
1
1
1
1
1
1
1
1
1
1
1
1
1
1
1
1
1
1
1
1
1
1
1
1
1
1
1
1
1
1
1
1
1
1
1
1
1
1
1
1
1
1
1
1
1
1
1
1
1
1
1
1
1
1
1
1
1
1
1
1
1
1
1
1
1
1
1
1
1
1
1
1
1
1
1
1
1
1
1
1
1
1
1
1
1
1
1
1
1
1
1
1
1
1
1
1
1
1
1
1
1
1
1
1
1
1
1
1
1
1
1
1
1
1
1
1
1
1
1
1
1
1
1
1
1
1
1
1
1
1
1
1
1
1
1
1
1
1
1
1
1
1
1
1
1
1
1
1
1
1
1
1
1
1
1
1
1
1
1
1
1
1
1
1
1
1
1
1
1
1
1
1
1
1
1
1
1
1
1
1
1
1
1
1
1
1
1
1
1
1
1
1
1
1
1
1
1
1
1
1
1
1
1
1
1
1
1
1
1
1
1
1
1
1
1
1
1
1
1
1
1
1
1
1
1
1
1
1
1
1
1
1
1
1
1
1
1
1
1
1
1
1
1
1
1
1
1
1
1
1
1
1
1
1
1
1
1
1
1
1
1
1
1
1
1
1
1
1
1
1
1
1
1
1
1
1
1
1
1
1
1
1
1
1
1
1
1
1
1
1
1
1
1
1
1
1
1
1
1
1
1
1
1
1
1
1
1
1
1
1
1
1
1
1
1
1
1
1
1
1
1
1
1
1
1
1
1
1
1
1
1
1
1
1
1
1
1
1
1
1
1
1
1
1
1
1
1
1
1
1
1
1
1
1
1
1
1
1
1
1
1
1
1
1
1
1
1
1
1
1
1
1
1
1
1
1
1
1
1
1
1
1
1
1
1
1
1
1
1
1
1
1
1
1
1
1
1
1
1
1
1
1
1
1
1
1
1
1
1
1
1
1
1
1
1
1
1
1
1
1
1
1
1
1
1
1
1
1
1
1
1
1
1
1
1
1
1
1
1
1
1
1
1
1
1
1
1
1
1
1
1
1
1
1
1
1
1
1
1
1
1
1
1
1
1
1
1
1
1
1
1
1
1
1
1
1
1
1
1
1
1
1
1
1
1
1
1
1
1
1
1
1
1
1
1
1
1
1
1
1
1
1
1
1
1
1
1
1
1
1
1
1
1
1
1
1
1
1
1
1
1
1
1
1
1
1
1
1
1
1
1
1
1
1
1
1
1
1
1
1
1
1
1
1
1
1
1
1
1
1
1
1
1
1
1
1
1
1
1
1
1
1
1
1
1
1
1
1
1
1
1
1
1
1
1
1
1
1
1
1
1
1
1
1
1
1
1
1
1
1
1
1
1
1
1
1
1
1
1
1
1
1
1
1
1
1
1
1
1
1
1
1
1
1
1
1
1
1
1
1
1
1
1
1
1
1
1
1
1
1
1
1
1
1
1
1
1
1
1
1
1
1
1
1
1
1
1
1
1
1
1
1
1
1
1
1
1
1
1
1
1
1
1
1
1
1
1
1
1
1
1
1
1
1
1
1
1
1
1
1
1
1
1
1
1
1
1
1
1
1
1
1
1
1
1
1
1
1
1
1
1
1
1
1
1
1
1
1
1
1
1
1
1
1
1
1
1
1
1
1
1
1
1
1
1
1
1
1
1
1
1
1
1
1
1
1
1
1
1
1
1
1
1
1
1
1
1
1
1
1
1
1
1
1
1
1
1
1
1
1
1
1
1
1
1
1
1
1
1
1
1
1
1
1
1
1
1
1
1
1
1
1
1
1
1
1
1
1
1
1
1
1
1
1
1
1
1
1
1
1
1
1
1
1
1
1
1
1
1
1
1
1
1
1
1
1
1
1
1
1
1
1
1
1
1
1
1
1
1
1
1
1
1
1
1
1
1
1
1
1
1
1
1
1
1
1
1
1
1
1
1
1
1
1
1
1
1
1
1
1
1
1
1
1
1
1
1
1
1
1
1
1
1
1
1
1
1
1
1
1
1
1
1
1
1
1
1
1
1
1
1
1
1
1
1
1
1
1
1
1
1
1
1
1
1
1
1
1
1
1
1
1
1
1
1
1
1
1
1
1
1
1
1
1
1
1
1
1
1
1
1
1
1
1
1
1
1
1
1
1
1
1
1
1
1
1
1
1
1
1
1
1
1
1
1
1
1
1
1
1
1
1
1
1
1
1
1
1
1
1
1
1
1
1
1
1
1
1
1
1
1
1
1
1
1
1
1
1
1
1
1
1
1
1
1
1
1
1
1
1
1
1
1
1
1
1
1
1
1
1
1
1
1
1
1
1
1
1
1
1
1
1
1
1
1
1
1
1
1
1
1
1
1
1
1
1
1
1
1
1
1
1
1
1
1
1
1
1
1
1
1
1
1
1
1
1
1
1
1
1
1
1
1
1
1
1
1
1
1
1
1
1
1
1
1
1
1
1
1
1
1
1
1
1
1
1
1
1
1
1
1
1
1
1
1
1
1
1
1
1
1
1
1
1
1
1
1
1
1
1
1
1
1
1
1
1
1
1
1
1
1
1
1
1
1
1
1
1
1
1
1
1
1
1
1
1
1
1
1
1
1
1
1
1
1
1
1
1
1
1
1
1
1
1
1
1
1
1
1
1
1
1
1
1
1
1
1
1
1
1
1
1
1
1
1
1
1
1
1
1
1
1
1
1
1
1
1
1
1
1
1
1
1
1
1
1
1
1
1
1
1
1
1
1
1
1
1
1
1
1
1
1
1
1
1
1
1
1
1
1
1
1
1
1
1
1
1
1
1
1
1
1
1
1
1
1
1
1
1
1
1
1
1
1
1
1
1
1
1
1
1
1
1
1
1
1
1
1
1
1
1
1
1
1
1
1
1
1
1
1
1
1
1
1
1
1
1
1
1
1
1
1
1
1
1
1
1
1
1
1
1
1
1
1
1
1
1
1
1
1
1
1
1
1
1
1
1
1
1
1
1
1
1
1
1
1
1
1
1
1
1
1
1
1
1
1
1
1
1
1
1
1
1
1
1
1
1
1
1
1
1
1
1
1
1
1
1
1
1
1
1
1
1
1
1
1
1
1
1
1
1
1
1
1
1
1
1
1
1
1
1
1
1
1
1
1
1
1
1
1
1
1
1
1
1
1
1
1
1
1
1
1
1
1
1
1
1
1
1
1
1
1
1
1
1
1
1
1
1
1
1
1
1
1
1
1
1
1
1
1
1
1
1
1
1
1
1
1
1
1
1
1
1
1
1
1
1
1
1
1
1
1
1
1
1
1
1
1
1
1
1
1
1
1
1
1
1
1
1
1
1
1
1
1
1
1
1
1
1
1
1
1
1
1
1
1
1
1
1
1
1
1
1
1
1
1
1
1
1
1
1
1
1
1
1
1
1
1
1
1
1
1
1
1
1
1
1
1
1
1
1
1
1
1
1
1
1
1
1
1
1
1
1
1
1
1
1
1
1
1
1
1
1
1
1
1
1
1
1
1
1
1
1
1
1
1
1
1
1
1
1
1
1
1
1
1
1
1
1
1
1
1
1
1
1
1
1
1
1
1
1
1
1
1
1
1
1
1
1
1
1
1
1
1
1
1
1
1
1
1
1
1
1
1
1
1
1
1
1
1
1
1
1
1
1
1
1
1
1
1
1
1
1
1
1
1
1
1
1
1
1
1
1
1
1
1
1
1
1
1
1
1
1
1
1
1
1
1
1
1
1
1
1
1
1
1
1
1
1
1
1
1
1
1
1
1
1
1
1
1
1
1
1
1
1
1
1
1
1
1
1
1
1
1
1
1
1
1
1
1
1
1
1
1
1
1
1
1
1
1
1
1
1
1
1
1
1
1
1
1
1
1
1
1
1
1
1
1
1
1
1
1
1
1
1
1
1
1
1
1
1
1
1
1
1
1
1
1
1
1
1
1
1
1
1
1
1
1
1
1
1
1
1
1
1
1
1
1
1
1
1
1
1
1
1
1
1
1
1
1
1
1
1
1
1
1
1
1
1
1
1
1
1
1
1
1
1
1
1
1
1
1
1
1
1
1
1
1
1
1
1
1
1
1
1
1
1
1
1
1
1
1
1
1
1
1
1
1
1
1
1
1
1
1
1
1
1
1
1
1
1
1
1
1
1
1
1
1
1
1
1
1
1
1
1
1
1
1
1
1

SCALARS density double 1
LOOKUP_TABLE default
0.998423
0.998325
0.998227
0.998234
0.998198
0.998217
0.998244
0.998284
0.998323
0.998431
0.998509
0.99858
0.998706
0.998866
0.998949
0.999059
0.999238
0.999363
0.999432
0.999563
0.9997
0.999737
0.999777
0.999875
0.999924
0.999905
0.99996
1.00004
1.00007
1.00009
1.00021
1.0003
1.00034
1.00044
1.00057
1.00063
1.00068
1.0008
1.00087
1.00091
1.00096
1.00104
1.00106
1.00107
1.0011
1.00111
1.00108
1.00109
1.00104
1.00097
0.998322
0.998206
0.99814
0.998221
0.998143
0.998161
0.998208
0.998226
0.99826
0.998348
0.998418
0.99848
0.998579
0.998713
0.998812
0.998917
0.999064
0.999203
0.999303
0.999426
0.999563
0.99965
0.999714
0.999818
0.999891
0.999926
0.999991
1.00008
1.00013
1.00019
1.00029
1.00038
1.00045
1.00054
1.00064
1.00071
1.00077
1.00085
1.00092
1.00095
1.001
1.00106
1.00108
1.00109
1.00113
1.00114
1.00108
1.00114
1.00111
1.00103
0.998093
0.998112
0.998093
0.998087
0.998105
0.998131
0.998127
0.99817
0.998214
0.998232
0.99826
0.998373
0.998418
0.998459
0.998587
0.998717
0.998782
0.99889
0.999087
0.999206
0.999288
0.999464
0.999635
0.999697
0.999798
0.999978
1.00006
1.00011
1.00025
1.00039
1.00043
1.0005
1.00066
1.00071
1.00074
1.00083
1.00092
1.00093
1.00096
1.00105
1.00107
1.00107
1.00111
1.00115
1.00114
1.00115
1.00119
1.00117
1.00115
1.00117
0.997921
0.998039
0.998039
0.998035
0.998115
0.998137
0.998147
0.998157
0.998219
0.998211
0.998231
0.998268
0.998293
0.998332
0.998373
0.998452
0.998529
0.99862
0.99874
0.998884
0.999035
0.9992
0.999389
0.99957
0.999757
0.999932
1.00011
1.00026
1.0004
1.00053
1.00063
1.00072
1.00079
1.00086
1.0009
1.00096
1.00098
1.00102
1.00104
1.00107
1.0011
1.0011
1.00115
1.00115
1.00117
1.00118
1.00124
1.00123
1.00122
1.00129
0.9979
0.997969
0.998051
0.998109
0.99814
0.998153
0.998234
0.998249
0.998239
0.998279
0.998315
0.998254
0.998279
0.998325
0.998296
0.998271
0.998364
0.99842
0.998429
0.998568
0.99877
0.998918
0.999096
0.999415
0.999678
0.999879
1.00013
1.00041
1.00055
1.00066
1.00081
1.00092
1.00091
1.00095
1.00104
1.00102
1.00101
1.00107
1.00111
1.00107
1.00112
1.00117
1.00116
1.00117
1.00124
1.00124
1.00125
1.00127
1.00134
1.00134
0.997941
0.998009
0.998076
0.998116
0.998185
0.998163
0.998264
0.998286
0.9983
0.998334
0.998363
0.998385
0.998351
0.998363
0.998348
0.998331
0.998296
0.998303
0.998348
0.99839
0.998505
0.998687
0.998944
0.999192
0.999513
0.999854
1.00016
1.00039
1.00063
1.00079
1.00089
1.00095
1.00101
1.00104
1.00103
1.00106
1.00108
1.00111
1.0011
1.00115
1.00118
1.0012
1.00123
1.00124
1.00131
1.00128
1.00133
1.00134
1.00137
1.00139
0.998017
0.998117
0.998104
0.998063
0.998156
0.99818
0.998174
0.9982
0.998315
0.9983
0.998329
0.998404
0.998444
0.998397
0.998439
0.998469
0.998386
0.998362
0.998418
0.998427
0.99844
0.998623
0.998862
0.999074
0.99937
0.999766
1.00007
1.0003
1.00056
1.00078
1.00084
1.00091
1.00102
1.00106
1.00103
1.0011
1.00117
1.00114
1.00119
1.00125
1.00128
1.00125
1.00134
1.00136
1.00134
1.00136
1.00143
1.00139
1.00137
1.00143
0.998146
0.998137
0.998131
0.998092
0.99811
0.998109
0.998115
0.99812
0.998148
0.998203
0.998221
0.998279
0.99835
0.998412
0.998447
0.998467
0.998551
0.998567
0.998547
0.998606
0.998696
0.998761
0.998866
0.999119
0.99935
0.999575
0.99985
1.00017
1.00036
1.00053
1.00074
1.00088
1.00094
1.00102
1.00115
1.00117
1.00121
1.00127
1.00132
1.00134
1.00135
1.0014
1.0014
1.0014
1.00142
1.00141
1.00143
1.00141
1.00143
1.00142
0.998288
0.998167
0.998171
0.998223
0.998144
0.99809
0.998155
0.998113
0.998065
0.998078
0.998152
0.998133
0.998148
0.998297
0.998351
0.998422
0.998561
0.998714
0.998774
0.998883
0.999044
0.999079
0.999142
0.999249
0.999393
0.999433
0.999636
0.999853
1.00006
1.00025
1.00053
1.00075
1.00088
1.00106
1.0012
1.00127
1.00129
1.0014
1.0014
1.00137
1.00143
1.00143
1.00141
1.00137
1.00145
1.00141
1.00137
1.00142
1.00145
1.00138
0.998327
0.998303
0.998276
0.998256
0.998265
0.998228
0.998193
0.998184
0.998171
0.998103
0.998093
0.998091
0.998113
0.998094
0.998226
0.998366
0.998492
0.998689
0.998988
0.999185
0.999291
0.999483
0.999552
0.999487
0.9994
0.99948
0.999452
0.999507
0.999717
1.00005
1.00026
1.00054
1.00087
1.00107
1.00118
1.0013
1.00142
1.00137
1.0014
1.00142
1.00141
1.00137
1.00139
1.00141
1.00138
1.00137
1.00142
1.00138
1.00138
1.0014
0.998285
0.998326
0.99829
0.998204
0.998273
0.998275
0.998234
0.998192
0.998264
0.99822
0.998115
0.998161
0.998147
0.998116
0.998143
0.998323
0.998475
0.998682
0.999016
0.999322
0.999552
0.999726
0.999816
0.999736
0.999607
0.999483
0.999393
0.999368
0.999532
0.999765
1.00006
1.00039
1.00074
1.00096
1.00112
1.00129
1.00134
1.00136
1.00136
1.00143
1.00137
1.00136
1.00143
1.00141
1.00139
1.00139
1.00146
1.00139
1.00138
1.00142
0.998242
0.998135
0.998174
0.998159
0.998127
0.998107
0.998201
0.998179
0.99817
0.998228
0.99827
0.998201
0.998228
0.998298
0.998318
0.998367
0.99858
0.998832
0.999012
0.999325
0.99967
0.9998
0.99984
0.999896
0.999834
0.999551
0.999467
0.999491
0.999477
0.999585
0.999904
1.00023
1.00043
1.00074
1.00101
1.00111
1.00119
1.00132
1.00138
1.00133
1.0014
1.00146
1.00143
1.00141
1.00149
1.00147
1.00144
1.00144
1.0015
1.00141
0.998102
0.997988
0.998025
0.99804
0.998036
0.997964
0.998079
0.998101
0.99806
0.998136
0.998225
0.998281
0.998297
0.998444
0.99858
0.998643
0.99882
0.999023
0.999204
0.999346
0.999531
0.999713
0.999786
0.999854
0.999824
0.999826
0.999711
0.999648
0.999587
0.999645
0.999758
0.999903
1.00016
1.00043
1.00071
1.00089
1.0011
1.00126
1.00131
1.00139
1.00144
1.00149
1.00145
1.00147
1.00154
1.00148
1.00148
1.00149
1.00153
1.00146
0.997903
0.997976
0.997994
0.997904
0.998028
0.998035
0.997965
0.997972
0.998077
0.998047
0.998068
0.998258
0.998396
0.998506
0.998729
0.999048
0.999145
0.999255
0.999432
0.999479
0.999409
0.999483
0.999669
0.999662
0.999795
0.999976
1.00001
0.999839
0.999844
0.999769
0.999623
0.999668
0.999907
1.00013
1.00032
1.00073
1.00101
1.00114
1.00129
1.00146
1.00148
1.00144
1.00154
1.00154
1.00147
1.00148
1.00159
1.0015
1.0015
1.00156
0.997845
0.997923
0.998009
0.997922
0.998028
0.998016
0.998011
0.997963
0.998019
0.998072
0.99807
0.998185
0.998432
0.998643
0.9989
0.999183
0.999491
0.999571
0.999598
0.99958
0.999486
0.999388
0.999381
0.999582
0.999771
0.999958
1.00008
1.00018
1.00001
0.999809
0.999651
0.999607
0.999639
0.999794
1.00017
1.00048
1.00079
1.00104
1.00129
1.0014
1.00143
1.00151
1.00155
1.00152
1.00154
1.00153
1.00158
1.00152
1.00157
1.00158
0.997919
0.997803
0.997958
0.997997
0.997974
0.997881
0.998081
0.998045
0.997985
0.998082
0.998253
0.99828
0.998418
0.998828
0.999066
0.999278
0.999576
0.999794
0.999711
0.999607
0.999593
0.999436
0.999323
0.999503
0.999736
0.999855
1.00008
1.00025
1.00012
0.999895
0.999821
0.999645
0.999519
0.999698
0.999993
1.00024
1.00052
1.00097
1.00116
1.00124
1.00144
1.00155
1.00152
1.0015
1.00166
1.00159
1.00155
1.00159
1.00169
1.00156
0.997918
0.997892
0.997996
0.997929
0.998011
0.997955
0.998035
0.998088
0.99814
0.99819
0.998333
0.998549
0.998722
0.99893
0.999251
0.999486
0.999568
0.999684
0.999764
0.999694
0.999556
0.999562
0.999577
0.999509
0.999611
0.999836
0.999991
1.00002
1.0001
1.00013
0.999913
0.999746
0.999709
0.99971
0.999743
1
1.00039
1.00064
1.00091
1.00121
1.00137
1.00144
1.00152
1.00158
1.0016
1.00157
1.00165
1.00159
1.00165
1.00164
0.997946
0.99808
0.998058
0.997845
0.998056
0.998094
0.998005
0.997991
0.998255
0.998328
0.998371
0.998753
0.999061
0.999197
0.999372
0.999626
0.99963
0.99952
0.999641
0.999675
0.999617
0.999661
0.999768
0.999712
0.999625
0.999754
0.999768
0.999839
1.00005
1.00016
1.00007
0.999976
0.999943
0.999716
0.999658
0.99989
1.00011
1.00035
1.00073
1.00115
1.00126
1.00138
1.00162
1.00163
1.00156
1.0016
1.00175
1.0016
1.00158
1.00169
0.998113
0.997965
0.998015
0.997961
0.998003
0.99793
0.99802
0.998012
0.998103
0.998347
0.998611
0.99883
0.999171
0.99951
0.999585
0.999581
0.999624
0.99959
0.999401
0.999505
0.99973
0.999786
0.999799
0.999876
0.999851
0.999588
0.999625
0.999807
0.999918
1.00003
1.00026
1.00031
0.99999
0.999853
0.999812
0.999753
0.999838
1.00023
1.00062
1.00087
1.0012
1.00149
1.00157
1.0016
1.00173
1.00169
1.00169
1.0017
1.00175
1.00162
0.99812
0.997826
0.997953
0.998041
0.997952
0.997806
0.99805
0.99816
0.998157
0.998417
0.99882
0.999099
0.999261
0.999628
0.999768
0.999619
0.999564
0.999532
0.999473
0.999433
0.99966
0.999852
0.99987
0.999941
0.999854
0.99972
0.999618
0.999718
0.999794
1.00003
1.0003
1.00028
1.0002
1.00006
0.999904
0.999687
0.999777
1.0001
1.0003
1.00065
1.00107
1.00136
1.00143
1.00157
1.00179
1.00172
1.00167
1.00176
1.00186
1.00167
0.997902
0.997974
0.997993
0.997796
0.997983
0.99804
0.998021
0.998161
0.998504
0.998639
0.998866
0.999295
0.999537
0.999521
0.999614
0.999729
0.999484
0.999373
0.999538
0.999599
0.999537
0.999742
0.99997
0.99986
0.999806
0.999872
0.999803
0.999626
0.999836
1.00008
1.0001
1.00024
1.00043
1.00029
0.999932
0.999927
0.999915
0.999847
1.00011
1.00058
1.00086
1.00106
1.00145
1.00162
1.00159
1.00169
1.00189
1.00172
1.00173
1.00186
0.997831
0.997976
0.99795
0.997739
0.997981
0.998073
0.998081
0.99818
0.998606
0.998903
0.999032
0.999371
0.999625
0.999595
0.999465
0.999498
0.999511
0.999426
0.99949
0.999646
0.999686
0.999692
0.99975
0.999821
0.999869
0.999892
0.999888
0.999883
0.999871
0.999906
1.00002
1.00027
1.0004
1.00031
1.00027
1.00014
0.99989
0.99982
1.00004
1.00038
1.0006
1.00099
1.00141
1.00156
1.00162
1.00172
1.0019
1.00177
1.00176
1.00187
0.997917
0.997632
0.997763
0.99796
0.997853
0.997751
0.998197
0.998415
0.998503
0.998964
0.999485
0.999538
0.999501
0.999695
0.999546
0.999276
0.999384
0.999612
0.99955
0.999583
0.99982
0.999702
0.99955
0.999755
0.99991
0.999873
0.999966
1.00012
0.999946
0.999797
1.00006
1.00018
1.0002
1.00044
1.00053
1.00019
0.999916
1
0.999929
0.999972
1.00051
1.00101
1.00115
1.00143
1.00187
1.00181
1.00171
1.00192
1.00203
1.00176
0.997743
0.997597
0.997772
0.997836
0.997893
0.997864
0.998222
0.998556
0.99882
0.999149
0.999554
0.999752
0.999589
0.999501
0.99951
0.999378
0.999278
0.999478
0.999674
0.999685
0.999614
0.999676
0.999674
0.99961
0.999767
0.999977
1.00013
1.00006
1.00002
1.00007
0.999973
1.00001
1.00028
1.00053
1.00046
1.00034
1.00028
1.00004
0.999813
0.999993
1.00034
1.00066
1.00101
1.00139
1.0017
1.00176
1.00186
1.00189
1.00201
1.00193
0.997473
0.997911
0.997863
0.997514
0.997968
0.998299
0.998246
0.998518
0.999243
0.999438
0.999349
0.999656
0.999719
0.999356
0.99922
0.999483
0.999461
0.999352
0.999683
0.999742
0.999583
0.999589
0.999724
0.999678
0.999662
1.00004
1.00008
1.00004
1.00016
1.00014
0.999961
0.999972
1.00033
1.00034
1.00039
1.00067
1.0005
1.00006
0.999997
1.0002
1.0001
1.00033
1.00103
1.00135
1.00134
1.00171
1.0021
1.00184
1.00178
1.00216
0.997717
0.9977
0.99773
0.997783
0.997973
0.998173
0.998527
0.998815
0.999126
0.999495
0.99957
0.999416
0.999405
0.999451
0.999292
0.999305
0.999575
0.999685
0.9995
0.999605
0.999722
0.999625
0.999572
0.999768
0.999931
0.999783
0.99996
1.0002
1.00019
1.00005
1.0001
1.0002
1.00004
1.00021
1.00058
1.00062
1.00046
1.00043
1.0003
1.00002
1.00009
1.00048
1.00075
1.00108
1.00151
1.00171
1.00184
1.002
1.00204
1.00194
0.997977
0.997446
0.997719
0.998225
0.998072
0.998021
0.998867
0.999308
0.99917
0.999464
0.999871
0.999523
0.99911
0.999421
0.999537
0.999314
0.999495
0.999775
0.999623
0.999401
0.999642
0.999687
0.999627
0.99981
0.999888
0.999843
0.999913
1.00014
1.00011
1.00015
1.00035
1.00016
1.00002
1.00029
1.00054
1.00042
1.00055
1.00077
1.00028
0.999891
1.00018
1.00041
1.00036
1.00084
1.0016
1.00164
1.00155
1.00201
1.00225
1.00183
0.997616
0.997858
0.997911
0.997785
0.998153
0.99855
0.998765
0.999154
0.99965
0.999611
0.999443
0.999511
0.999373
0.999081
0.999302
0.999597
0.999474
0.999453
0.999628
0.999614
0.999386
0.999643
0.999918
0.999793
0.999758
0.999964
0.999984
0.999831
1.0001
1.00041
1.00022
1.00017
1.00035
1.00034
1.00025
1.0006
1.00089
1.00061
1.00043
1.00043
1.00014
1.00003
1.00054
1.00095
1.00111
1.0016
1.00201
1.00187
1.00191
1.00225
0.997569
0.998121
0.997943
0.997597
0.998275
0.998945
0.998881
0.999081
0.999832
0.999809
0.999188
0.999271
0.999488
0.999262
0.999142
0.999602
0.999702
0.999411
0.999484
0.999665
0.999631
0.999617
0.999843
0.99991
0.999881
0.999896
0.999855
0.999914
1.00012
1.00019
1.00021
1.00036
1.00042
1.00013
1.00024
1.00072
1.00069
1.00059
1.00077
1.0007
1.00006
0.999996
1.00058
1.00079
1.00086
1.0015
1.00209
1.00189
1.00178
1.00223
0.998035
0.997488
0.997702
0.998396
0.998368
0.998493
0.9994
0.999685
0.999359
0.999496
0.999658
0.999161
0.999066
0.999558
0.999579
0.999287
0.999582
0.999705
0.99937
0.999396
0.999826
0.999792
0.999605
0.999925
1.00002
0.999789
0.999819
1.00014
1.00003
0.999994
1.00044
1.00052
1.00018
1.00027
1.00055
1.00034
1.00043
1.001
1.00092
1.00036
1.00045
1.00052
1.00009
1.0004
1.00131
1.00144
1.00141
1.00215
1.00237
1.00183
0.997852
0.997377
0.997829
0.998471
0.998512
0.99863
0.999423
0.999785
0.999376
0.999213
0.999454
0.999319
0.999009
0.999395
0.999663
0.999473
0.99928
0.999514
0.999532
0.999461
0.999588
0.999803
0.999845
0.999763
0.99986
0.999917
1.00003
0.999965
0.999986
1.00023
1.00039
1.00033
1.00038
1.0006
1.00042
1.00028
1.00063
1.00101
1.00078
1.00069
1.00079
1.0005
1.00016
1.00051
1.00111
1.00133
1.00149
1.002
1.00238
1.00211
0.997101
0.998222
0.998155
0.997682
0.99872
0.999613
0.999149
0.999211
0.999935
0.999529
0.998813
0.999316
0.999707
0.999207
0.999248
0.999759
0.999534
0.999131
0.999617
0.999826
0.999587
0.99969
1.00002
0.999855
0.99969
1.00007
1.00001
0.999826
1.0001
1.00025
1.00005
1.00024
1.00073
1.00043
1.00019
1.00068
1.0008
1.00038
1.00081
1.00132
1.00058
1.00013
1.00076
1.00076
1.0003
1.00119
1.00215
1.00172
1.00167
1.00274
0.997623
0.997942
0.997971
0.998165
0.998804
0.99934
0.999447
0.999371
0.999492
0.999472
0.999146
0.999101
0.999456
0.999444
0.999213
0.999341
0.999522
0.999436
0.999356
0.999734
0.999831
0.999709
0.999689
0.999858
0.999994
0.999829
0.999941
1.00015
1.00016
1.00001
1.0001
1.00049
1.00047
1.0004
1.00064
1.00074
1.00052
1.00063
1.00106
1.00103
1.00076
1.00074
1.00063
1.00052
1.00074
1.00118
1.00161
1.002
1.00206
1.00214
0.998235
0.997036
0.997781
0.999283
0.998857
0.998513
0.999871
1.00006
0.998839
0.998993
0.999796
0.999338
0.998837
0.999584
0.999677
0.999018
0.999212
0.99975
0.999627
0.999405
0.999858
0.999844
0.99962
0.999828
0.999955
0.999899
0.999984
1.00024
1.00005
0.999992
1.00043
1.0003
1.00017
1.0007
1.00094
1.00035
1.00041
1.0012
1.00086
1.00049
1.00127
1.00134
1.00013
1.00027
1.00145
1.00114
1.00078
1.00216
1.0028
1.00173
0.997369
0.997882
0.998261
0.998393
0.998961
0.999484
0.999391
0.999413
0.999484
0.999116
0.99912
0.999501
0.999468
0.999166
0.999385
0.999442
0.999201
0.999317
0.999741
0.999801
0.999528
0.999783
0.999976
0.999752
0.999748
1.00006
1.00014
0.999901
1.00006
1.00035
1.00013
1.00012
1.00056
1.00075
1.00052
1.00061
1.00091
1.00066
1.00068
1.0012
1.00121
1.00078
1.00088
1.00085
1.00052
1.00113
1.0018
1.00171
1.002
1.00273
0.997096
0.998856
0.998588
0.997662
0.999246
1.00037
0.999139
0.998702
0.999878
0.999557
0.998547
0.999242
0.999912
0.999215
0.998799
0.99953
0.999473
0.999091
0.999562
0.999914
0.999687
0.9996
0.999935
0.999868
0.999778
1.00007
0.999997
0.999947
1.00028
1.00025
1.00001
1.00033
1.00079
1.00045
1.0004
1.00117
1.0009
1.00026
1.00095
1.00169
1.00084
1.00058
1.00157
1.00109
0.999993
1.001
1.00232
1.00158
1.00137
1.00286
0.998438
0.997493
0.997946
0.999417
0.999152
0.998923
0.999788
0.999702
0.998755
0.999116
0.999664
0.999117
0.998993
0.999527
0.99946
0.998936
0.999363
0.999712
0.999459
0.999525
0.999895
0.999899
0.999626
0.999849
1.00006
0.999867
0.999965
1.00025
1.0001
1.00004
1.00037
1.00049
1.00021
1.0005
1.00104
1.00064
1.00053
1.00111
1.00111
1.00063
1.00124
1.00173
1.0007
1.00058
1.00153
1.00116
1.00073
1.00234
1.00274
1.00158
0.998432
0.99695
0.998214
0.999891
0.999185
0.998528
0.999858
1.00008
0.998683
0.998773
0.999885
0.999365
0.998593
0.999294
0.999657
0.999129
0.9991
0.999726
0.99965
0.999373
0.999711
0.999887
0.999759
0.999737
0.999876
0.999993
1.00012
1.00015
1.00004
1.00021
1.00056
1.00029
1.00018
1.00081
1.0009
1.00041
1.00077
1.0015
1.00086
1.00047
1.00162
1.00177
1.00057
1.00078
1.00177
1.0012
1.00071
1.00204
1.00307
1.00197
0.996701
0.999269
0.999038
0.997681
0.999388
1.00058
0.998883
0.998613
1.00004
0.999521
0.998344
0.999225
0.999696
0.998728
0.998773
0.999644
0.999613
0.999114
0.999599
0.999874
0.999518
0.999683
1.00002
0.99982
0.999726
1.00012
1.00013
0.999919
1.00024
1.00045
1.00011
1.0003
1.00084
1.00045
1.00031
1.00117
1.00136
1.00045
1.00088
1.00192
1.00099
1.00053
1.00205
1.00178
0.99997
1.00121
1.00285
1.00131
1.00108
1.00373
0.997736
0.998964
0.998594
0.9982
0.999437
1.00017
0.999161
0.998734
0.99962
0.999577
0.99875
0.998849
0.999439
0.999041
0.998795
0.999421
0.999686
0.999463
0.99946
0.999753
0.999751
0.999656
0.999784
0.999854
0.999933
1
1.00001
1.00014
1.00033
1.00019
1.00016
1.00054
1.00062
1.00033
1.00054
1.0012
1.00099
1.00062
1.0013
1.00154
1.00093
1.00108
1.0019
1.00151
1.00075
1.00134
1.00212
1.00206
1.0018
1.00244
0.999541
0.996349
0.997831
1.00111
0.999267
0.997715
1.00031
1.00044
0.998058
0.998648
1.00023
0.999051
0.99797
0.999255
0.999642
0.998769
0.999217
1
0.999635
0.999271
0.999755
0.999847
0.999535
0.999856
1.0001
0.999859
1.00001
1.00038
1.00014
1.00014
1.00068
1.0005
1.00008
1.00078
1.00128
1.00039
1.00064
1.00202
1.00123
1.0001
1.00174
1.0026
1.0004
1.00057
1.00314
1.00154
0.999748
1.00295
1.00413
1.00095
0.997564
0.997886
0.999028
0.999261
0.999304
0.999477
0.999363
0.999479
0.999137
0.998847
0.999086
0.998987
0.998786
0.99874
0.999124
0.999321
0.999382
0.999617
0.999727
0.999688
0.999597
0.999631
0.999773
0.999873
0.999945
0.999996
1.00009
1.00016
1.00024
1.00035
1.00038
1.00034
1.00046
1.00075
1.00072
1.00076
1.00119
1.00126
1.00111
1.00116
1.00157
1.00149
1.00143
1.00173
1.0014
1.00168
1.00207
1.00175
1.00261
1.00355
0.996063
1.00105
0.999587
0.996279
0.999773
1.00182
0.99843
0.997692
1.00054
0.999767
0.997521
0.998706
0.999793
0.998608
0.998323
0.999712
0.999856
0.999167
0.999676
1.00008
0.999537
0.999393
0.99984
0.999926
0.999895
1.00013
1.00003
1
1.00047
1.00047
1.00001
1.00045
1.00106
1.00035
1.00026
1.00159
1.00145
1.00021
1.00128
1.0027
1.00074
1.00006
1.00312
1.00272
0.999486
1.00152
1.00466
1.00139
1.00026
1.00483
0.999672
0.997414
0.997914
1.00034
0.999431
0.998715
0.999731
0.999797
0.998528
0.998711
0.999202
0.998496
0.998298
0.998927
0.999287
0.999065
0.999354
0.999813
0.99967
0.999513
0.99962
0.999637
0.999611
0.999856
1.00007
0.999975
1.00003
1.00028
1.00032
1.00031
1.0005
1.00054
1.0004
1.00074
1.00105
1.0008
1.00094
1.00154
1.00153
1.00093
1.00156
1.00211
1.00117
1.00141
1.00274
1.00204
1.00077
1.00364
1.00408
1.001
1.00003
0.995035
0.998116
1.00245
0.999207
0.996894
1.00063
1.0008
0.997639
0.998024
0.999824
0.998604
0.997563
0.999135
0.999738
0.998916
0.999289
1.00018
0.999846
0.999364
0.999703
0.999752
0.999526
0.999873
1.0001
0.999917
1.00012
1.00043
1.00014
1.00019
1.00077
1.00046
1.00004
1.00093
1.00138
1.00035
1.0007
1.00233
1.00141
1.00008
1.00212
1.00306
1.00023
1.00059
1.00447
1.00247
0.999458
1.00362
1.00593
1.00162
0.994956
1.00109
1.0001
0.996307
0.999635
1.00176
0.998383
0.997689
0.999822
0.999185
0.997337
0.998074
0.999294
0.99858
0.998527
0.999616
0.999876
0.999441
0.999628
0.999862
0.999465
0.99939
0.999783
0.9999
0.999923
1.0001
1.00015
1.00014
1.00042
1.00046
1.00023
1.00055
1.00089
1.00052
1.00057
1.00154
1.00149
1.00053
1.00157
1.00256
1.00103
1.0005
1.00309
1.00297
0.999932
1.00228
1.00577
1.00143
1.00076
1.00768
0.997437
1.00208
0.998983
0.995904
1.00017
1.00171
0.998385
0.997913
0.999899
0.998885
0.997235
0.998194
0.999115
0.998533
0.998821
0.999905
0.999945
0.999488
0.999793
0.999825
0.999342
0.999412
0.99982
0.999799
0.999865
1.00025
1.00025
1.00011
1.00047
1.00056
1.00015
1.00041
1.001
1.00056
1.00045
1.00151
1.00161
1.0005
1.00132
1.00265
1.00117
1.00029
1.00294
1.00315
1.00007
1.00182
1.00599
1.00289
1.00096
1.00469
1.00221
0.990873
0.996519
1.00433
0.999498
0.996101
1.00022
1.00077
0.996832
0.997044
0.999368
0.998196
0.997133
0.998876
0.999997
0.999253
0.999405
1.00028
0.999823
0.999214
0.999506
0.999718
0.999559
0.999829
1.00012
1.00005
1.00027
1.00045
1.00012
1.00024
1.0008
1.00048
1.00007
1.00112
1.00151
1.00041
1.00094
1.00263
1.00152
0.99999
1.00254
1.00348
0.999782
1.0008
1.00587
1.00288
0.998109
1.00646
1.01031
0.998089
0.995839
0.995907
0.999047
1.00093
0.99876
0.999215
1.00001
0.999102
0.997467
0.998266
0.998267
0.997676
0.998016
0.999176
0.999505
0.999578
1.00005
1.00014
0.999527
0.99935
0.999489
0.999418
0.99943
0.999936
1.00017
1.00008
1.00026
1.00055
1.00028
1.00017
1.00057
1.00068
1.0003
1.00074
1.00137
1.00105
1.00085
1.0018
1.0019
1.00089
1.00126
1.00268
1.00147
1.00096
1.00305
1.00417
1.00134
1.00369
1.00747
1.00808
0.994969
1.00966
0.999542
0.993233
1.00071
1.00379
0.99765
0.99706
0.999984
0.998476
0.995777
0.997594
0.999197
0.998319
0.998686
1.00053
1.00047
0.999588
0.999781
0.999835
0.999074
0.999094
0.999691
0.999777
0.999986
1.00051
1.00035
1.00011
1.00059
1.0005
0.999795
1.00046
1.00128
1.0004
1.00024
1.00222
1.00188
0.999876
1.00163
1.00379
1.00043
0.999257
1.00462
1.00387
0.997225
1.0032
1.01085
1.00005
0.996068
1.02291

VECTORS velocity double
9.18181e-05 0.000105399 0
6.90765e-05 0.000222924 0
1.87579e-05 0.000154172 0
1.20938e-05 0.000195933 0
-6.16992e-06 0.000155494 0
-2.13631e-05 0.000193598 0
-4.75674e-05 0.000166831 0
-5.50348e-05 0.000184252 0
-7.04396e-05 0.000169895 0
-8.60643e-05 0.000179067 0
-9.35421e-05 0.000163175 0
-9.79691e-05 0.000169244 0
-0.000103734 0.000159524 0
-0.000106828 0.000151602 0
-0.000101562 0.000137024 0
-9.89619e-05 0.00013154 0
-9.67171e-05 0.000115452 0
-8.58531e-05 0.000101906 0
-7.23433e-05 8.45391e-05 0
-6.25615e-05 7.37009e-05 0
-5.03309e-05 5.47036e-05 0
-3.53104e-05 4.27477e-05 0
-2.55295e-05 2.80349e-05 0
-1.95892e-05 2.00642e-05 0
-1.1739e-05 6.60205e-06 0
-1.03676e-05 -1.93417e-07 0
-1.54928e-05 -1.26926e-05 0
-1.95566e-05 -1.91265e-05 0
-2.67661e-05 -3.11631e-05 0
-3.80089e-05 -3.94825e-05 0
-4.65837e-05 -5.36129e-05 0
-5.41669e-05 -5.98932e-05 0
-6.32809e-05 -7.10355e-05 0
-6.95709e-05 -7.96382e-05 0
-7.03209e-05 -8.85328e-05 0
-7.1168e-05 -8.96755e-05 0
-7.42173e-05 -9.91318e-05 0
-7.01244e-05 -0.000103056 0
-6.64719e-05 -0.000107517 0
-6.29637e-05 -0.000101674 0
-5.91354e-05 -0.000113774 0
-4.68211e-05 -0.00010495 0
-3.68102e-05 -0.000115318 0
-3.26152e-05 -0.000102148 0
-1.45895e-05 -0.000122856 0
-3.20275e-06 -9.54638e-05 0
6.55679e-06 -0.000123 0
9.88563e-06 -9.66285e-05 0
4.48341e-05 -0.000144499 0
5.97921e-05 -6.66028e-05 0
9.22768e-05 0.000289551 0
9.51978e-05 0.000595322 0
4.15149e-05 0.000501645 0
2.89107e-05 0.000523971 0
-1.69964e-05 0.000504324 0
-5.83346e-05 0.000536714 0
-8.50747e-05 0.000498771 0
-0.000107036 0.000514944 0
-0.000134497 0.000504786 0
-0.000157869 0.000510775 0
-0.000175904 0.00047691 0
-0.000189048 0.000483918 0
-0.000196105 0.000462895 0
-0.000201636 0.000438711 0
-0.000199815 0.000402708 0
-0.000192593 0.00038467 0
-0.0001821 0.000342027 0
-0.000167097 0.000299273 0
-0.000145964 0.000256374 0
-0.000125325 0.000217877 0
-0.000103289 0.000168153 0
-8.29631e-05 0.000127725 0
-6.63045e-05 9.1588e-05 0
-5.32938e-05 5.72141e-05 0
-4.43078e-05 2.33658e-05 0
-4.24373e-05 -1.94341e-06 0
-4.66589e-05 -3.37447e-05 0
-5.33195e-05 -6.172e-05 0
-6.49551e-05 -8.8758e-05 0
-7.97642e-05 -0.00011966 0
-9.4239e-05 -0.000154462 0
-0.000107073 -0.000177981 0
-0.000122303 -0.000204988 0
-0.000131661 -0.000232366 0
-0.000136554 -0.000256385 0
-0.000140159 -0.000261901 0
-0.00014103 -0.000285037 0
-0.000135606 -0.000297096 0
-0.000128858 -0.000308477 0
-0.000120376 -0.000298068 0
-0.000107194 -0.000324629 0
-9.10147e-05 -0.000315518 0
-7.29355e-05 -0.000323202 0
-5.81681e-05 -0.000310898 0
-4.15691e-05 -0.000339899 0
-1.28333e-05 -0.000317857 0
1.64351e-05 -0.000328906 0
2.69889e-05 -0.00031886 0
5.98362e-05 -0.000383532 0
5.80733e-05 -0.000183912 0
6.94365e-05 0.000448124 0
9.07387e-05 0.000869633 0
4.71466e-05 0.000798753 0
1.30616e-05 0.000774893 0
-4.11017e-05 0.000793873 0
-4.75815e-05 0.000765351 0
-7.37917e-05 0.000765766 0
-0.000117657 0.000760845 0
-0.000138181 0.000758038 0
-0.000150796 0.00074638 0
-0.000173531 0.000745229 0
-0.000200219 0.00072104 0
-0.000207536 0.000708118 0
-0.000210426 0.00068699 0
-0.000224131 0.000649263 0
-0.000226721 0.000607262 0
-0.000216844 0.00056519 0
-0.000205324 0.00051183 0
-0.000199689 0.00044148 0
-0.000177513 0.000380465 0
-0.000154074 0.000314176 0
-0.000134023 0.000241418 0
-0.000116072 0.000172453 0
-9.73606e-05 0.000113236 0
-8.65976e-05 5.3775e-05 0
-8.21637e-05 -7.11111e-06 0
-8.4178e-05 -6.17107e-05 0
-9.42337e-05 -0.000109468 0
-0.000102551 -0.000163487 0
-0.000113518 -0.000216392 0
-0.00012884 -0.000260326 0
-0.000143143 -0.000298028 0
-0.000141841 -0.000344163 0
-0.000149347 -0.000374061 0
-0.000156664 -0.000396504 0
-0.000152251 -0.000420256 0