# vtk DataFile Version 4.0
SiwiRVisFile
ASCII
DATASET STRUCTURED_POINTS
DIMENSIONS 25 25 1
ORIGIN 0 0 0
SPACING 1 1 1
POINT_DATA 625

SCALARS flags double 1
LOOKUP_TABLE default
1
1
1
1
1
1
1
1
1
1
1
1
1
1
1
1
1
1
1
1
1
1
1
1
1
1
1
1
1
1
1
1
1
1
1
1
1
1
1
1
1
1
1
1
1
1
1
1
1
1
1
1
1
1
1
1
1
1
1
1
1
1
1
1
1
1
1
1
1
1
1
1
1
1
1
1
1
1
1
1
1
1
1
1
1
1
1
1
1
1
1
1
1
1
1
1
1
1
1
1
1
1
1
1
1
1
1
1
1
1
1
1
1
1
1
1
1
1
1
1
1
1
1
1
1
1
1
1
1
1
1
1
1
1
1
1
1
1
1
1
1
1
1
1
1
1
1
1
1
1
1
1
1
1
1
1
1
1
1
1
1
1
1
1
1
1
1
1
1
1
1
1
1
1
1
1
1
1
1
1
1
1
1
1
1
1
1
1
1
1
1
1
1
1
1
1
1
1
1
1
1
1
1
1
1
1
1
1
1
1
1
1
1
1
1
1
1
1
1
1
1
1
1
1
1
1
1
1
1
1
1
1
1
1
1
1
1
1
1
1
1
1
1
1
1
1
1
1
1
1
1
1
1
1
1
1
1
1
1
1
1
1
1
1
1
1
1
1
1
1
1
1
1
1
1
1
1
1
1
1
1
1
1
1
1
1
1
1
1
1
1
1
1
1
1
1
1
1
1
1
1
1
1
1
1
1
1
1
1
1
1
1
1
1
1
1
1
1
1
1
1
1
1
1
1
1
1
1
1
1
1
1
1
1
1
1
1
1
1
1
1
1
1
1
1
1
1
1
1
1
1
1
1
1
1
1
1
1
1
1
1
1
1
1
1
1
1
1
1
1
1
1
1
1
1
1
1
1
1
1
1
1
1
1
1
1
1
1
1
1
1
1
1
1
1
1
1
1
1
1
1
1
1
1
1
1
1
1
1
1
1
1
1
1
1
1
1
1
1
1
1
1
1
1
1
1
1
1
1
1
1
1
1
1
1
1
1
1
1
1
1
1
1
1
1
1
1
1
1
1
1
1
1
1
1
1
1
1
1
1
1
1
1
1
1
1
1
1
1
1
1
1
1
1
1
1
1
1
1
1
1
1
1
1
1
1
1
1
1
1
1
1
1
1
1
1
1
1
1
1
1
1
1
1
1
1
1
1
1
1
1
1
1
1
1
1
1
1
1
1
1
1
1
1
1
1
1
1
1
1
1
1
1
1
1
1
1
1
1
1
1
1
1
1
1
1
1
1
1
1
1
1
1
1
1
1
1
1
1
1
1
1
1
1
1
1
1
1
1
1
1
1
1
1
1
1
1
1
1
1
1
1
1
1
1
1
1
1
1
1
1
1
1
1
1
1
1
1
1
1
1
1
1
1
1
1
1
1
1
1
1
1
1
1
1
1
1
1
1
1
1
1
1
1
1

SCALARS density double 1
LOOKUP_TABLE default
0.999737
0.999765
0.999883
0.999762
0.999687
0.999917
0.999925
0.999647
0.999793
1.0001
0.999804
0.999626
1.00006
1.00005
0.999613
0.999837
1.00019
0.999796
0.999652
1.00015
1.00005
0.999617
0.999951
1.00023
0.999755
1.00004
0.999506
0.999681
1.0001
0.999789
0.999576
0.999909
0.999995
0.999723
0.999769
0.999965
0.999901
0.999813
0.999855
0.999906
0.999936
0.999886
0.999806
0.999929
1.00003
0.999858
0.999776
1.00005
1.00005
0.999734
0.999722
0.999918
0.999768
0.999726
0.999902
0.999811
0.999697
0.999943
0.999931
0.999649
0.999881
1.00009
0.99972
0.999726
1.00014
0.999905
0.999602
1.00004
1.00014
0.999614
0.999825
1.00029
0.999826
0.999575
1.00019
0.999588
1.00011
0.999897
0.999477
0.999801
1.00009
0.999764
0.999607
0.999956
1.00001
0.999727
0.999764
1
0.999951
0.999764
0.999834
1
0.999937
0.999798
0.999879
1.00001
0.999956
0.999844
0.999892
1.00001
1.00002
0.999463
0.999716
1.00001
0.999761
0.999695
0.999974
0.999807
0.999692
0.999992
0.999896
0.999688
0.999983
1.00001
0.999674
0.999887
1.00012
0.999713
0.99971
1.00027
0.999954
0.999502
1.0001
1.00032
0.999562
0.999782
0.999379
0.999715
1.0001
0.999837
0.999549
0.999851
1.00008
0.999721
0.999615
1.00001
1.00005
0.999726
0.999764
1.00007
0.999923
0.999676
0.999914
1.00006
0.999834
0.99984
1.00005
0.999947
0.999873
1
0.999214
1.00019
0.999735
1
0.999887
1.00007
0.99953
0.999659
1.00004
0.99981
0.999791
1.00001
0.99984
0.999802
1.00005
0.999869
0.999682
1
1
1
0.999948
1.00042
0.999727
0.999531
1.00041
0.999663
0.999711
0.999418
1
0.99974
0.999922
0.999694
0.999456
0.99988
1.00015
0.999796
0.999692
1.00008
1.00007
0.999631
0.999805
1.00016
1
1
1
1.00005
0.999678
1.00011
1.00018
0.999705
0.999903
0.998524
0.999289
1
0.999502
0.999082
1.00004
0.999961
1
0.999919
1.00005
0.999857
0.999865
0.99993
0.999837
0.999999
0.999979
1
1
1
0.99995
0.999483
1.00028
1.00047
0.999503
0.998912
0.999565
0.999601
1
0.999687
0.99959
0.999399
0.999614
0.999715
0.999709
0.999969
1.00012
0.999757
0.999747
1.00022
0.999943
0.999529
1.00021
1.00039
0.99955
1.00001
1.00063
0.999703
0.999603
1.00058
0.998848
1.00031
0.999287
0.998098
0.999522
1.00028
0.999089
0.999129
1.0002
0.999955
0.999591
0.999863
1.0001
0.999989
0.999904
0.99982
0.99994
1.00023
1.00003
0.999598
1.00021
1.0005
0.99974
0.999565
1.00049
1.00002
0.998519
0.998862
1.00004
0.999093
0.998842
0.999782
1
0.99966
0.999654
1
0.999854
1.00001
1.00007
0.999656
1
1.00043
0.999592
0.999657
1.0008
0.99999
0.999143
1.00064
1.00068
0.999011
0.999423
0.998123
0.99927
1.00028
0.998966
0.99831
0.999594
1.00015
0.998713
1
1.00025
1.00007
0.999728
0.999912
1.00011
1.00004
0.999893
0.999829
1.0001
1.00026
0.999912
0.999757
1.00019
1.00044
0.999804
0.998113
1.00067
0.99958
0.997684
0.99958
1.0004
0.998444
0.998829
0.999826
0.999986
0.999689
0.999992
0.999995
0.999869
1.0002
0.999882
0.999513
1.00055
1.00037
0.998942
1.00023
1.00131
0.999081
0.999063
1.00157
0.999369
0.99991
0.998926
0.998568
0.999448
0.999717
0.998866
0.998823
0.999895
1.00003
0.999568
0.999822
1.00027
0.999964
0.999684
1.00003
1.00017
0.999957
0.999808
1.00011
1.00004
1.00001
1.00028
0.999829
0.999716
1.00054
0.996915
0.998799
1.00136
0.998486
0.997429
1.00053
1
0.999424
0.999345
1.00022
1.00001
0.999761
1.0001
0.999875
0.99998
1.00034
0.999379
0.999644
1.00145
0.999645
0.998345
1.00139
1.00141
0.99792
0.998213
0.999089
0.999609
0.998914
0.999034
0.999161
0.998907
1
0.999716
0.999848
1.00008
1
0.999646
1.00005
1.00032
0.999675
0.999678
1.00027
1.00018
0.999466
1.00029
1.00067
0.999157
0.999991
1.00149
0.997614
1.00215
0.999324
0.996239
0.999984
1.00126
0.997254
1
1.0005
1.00016
0.999121
1.00014
1.00045
0.999621
0.999807
1.00023
0.999711
1.00012
1
0.998133
1.00054
1.00228
0.998465
0.998146
1.0026
1.00095
0.997547
0.998128
1.0006
0.998768
0.997942
0.999952
1
0.999806
0.999994
0.999861
0.999937
1.00016
0.999904
0.999566
1.00023
1.00018
0.999573
1
1.00142
0.999272
0.99842
1.00212
1.00105
0.996945
1.00004
0.995227
0.998894
1.00202
0.998153
0.996974
1.00062
1
0.999173
0.999501
1.00082
0.999676
0.999279
1.00066
1.00031
0.999047
1
1
1
1.00158
0.999707
0.99766
1.00171
1.00238
0.997417
0.995128
1.00225
1.00008
0.995199
0.999391
1.0012
0.997956
0.998558
1.00058
1.00005
0.999874
0.999941
0.999923
0.999677
1.00045
1.0001
1
1
1
1
1
1
1
0.998742
1.00671
0.99906
1.00233
0.997692
0.995728
0.999663
1.00058
0.998027
0.999157
1.00078
0.999828
0.998958
1.00031
1.00096
0.998932
0.999348
1.00147
1
1
1
1
1.00494
1.01079
1.00163
1.00148
1.00795
1.00242
0.989891
0.996764
1.00472
1
0.996489
1.00066
1.00058
0.998494
1.00025
1
0.999868
0.999869
1.00094
0.999105
0.998741
1.00233
0.997763
0.999239
1.00987
1.00588
0.995251
1.00584
1.01464
0.998545
0.993681
0.995938
1.00028
0.999277
0.995792
0.998042
0.999715
0.999106
1.00011
1.00214
1.00128
1.00694
1
1.00083
1.00124
0.998366
1
0.999556
1.00344
1.00623
1.00174
1.00084
1.00796
1.0071
1.00396
0.993968
1.00955
0.998698
0.991979
0.999733
1.00072
0.997111
0.998505
1.00135
1.0013
1.00311
1.00833
1.00222
0.994979
0.999815
1.00314
1.00097
1.00645
1.00574
0.995341
1.00265
1.01488
1.00053
0.992954
1.02415

VECTORS velocity double
-1.13827e-06 3.65975e-06 0
-0.000144844 8.22345e-05 0
-0.000266856 5.09482e-06 0
-0.000263728 -2.00375e-05 0
-0.000251789 2.18844e-05 0
-0.000443438 9.64701e-05 0
-0.000551125 -2.12599e-05 0
-0.000491634 -2.71367e-05 0
-0.000498567 4.38788e-05 0
-0.000603443 1.39344e-05 0
-0.000549492 -4.63537e-05 0
-0.000474011 -7.28786e-06 0
-0.000442832 -4.5313e-06 0
-0.00044154 -1.17219e-05 0
-0.000412498 1.61005e-06 0
-0.00040071 -1.15577e-05 0
-0.000360669 -1.10971e-05 0
-0.000390302 2.03333e-05 0
-0.000435347 2.89462e-05 0
-0.000370128 -7.17605e-05 0
-0.000232147 -3.81577e-06 0
-0.000249436 3.12524e-05 0
-0.000209418 -1.62826e-05 0
-9.53236e-05 -4.53578e-05 0
2.56657e-06 1.42521e-05 0
-8.93922e-05 0.000133886 0
-0.000405682 0.000351401 0
-0.000617097 8.78034e-05 0
-0.00077894 4.45021e-05 0
-0.00113164 0.000273302 0
-0.00138471 0.000242047 0
-0.00133242 -1.88367e-05 0
-0.00148639 6.22875e-05 0
-0.00173088 0.00014876 0
-0.0016641 -6.0636e-05 0
-0.00142652 -0.000154578 0
-0.00146184 -5.34216e-06 0
-0.00141895 -9.68228e-05 0
-0.00112967 -0.000141254 0
-0.00102669 3.47251e-05 0
-0.00123538 3.3109e-05 0
-0.00122331 -8.25933e-05 0
-0.00104994 3.30067e-06 0
-0.00105312 6.25359e-05 0
-0.00114268 -0.00018683 0
-0.00089453 -0.000227854 0
-0.000543466 -0.000109397 0
-0.000396668 -0.000119996 0
-0.000299517 -0.000263015 0
-7.42808e-05 -0.00011766 0
-0.000124944 0.000443501 0
-0.000324865 0.000527665 0
-0.000722517 0.000508585 0
-0.0014257 0.000464556 0
-0.00169056 0.000498243 0
-0.00166443 0.000274995 0
-0.00197127 0.000257671 0
-0.00244051 0.00030475 0
-0.00238671 8.01963e-05 0
-0.00228033 -0.000131485 0
-0.00233894 -0.000220755 0
-0.00210479 -0.000215744 0
-0.00175827 -0.000271795 0
-0.00174 -0.000249485 0
-0.00164158 -3.54883e-05 0
-0.00142426 6.27948e-05 0
-0.00150041 -1.51416e-05 0
-0.00169452 -5.73435e-05 0
-0.00146794 -7.90646e-05 0
-0.00127364 -0.000163954 0
-0.00128965 -0.000452722 0
-0.000996287 -0.000529876 0
-0.000447256 -0.000308195 0
-0.000221061 -0.000315304 0
-8.26435e-05 -0.000316679 0
6.09505e-05 0.000549 0
-0.000447271 0.00103039 0
-0.00140428 0.00124146 0
-0.001829 0.000848751 0
-0.00166062 0.000443119 0
-0.00187952 0.000548462 0
-0.00244899 0.000720806 0
-0.0027694 0.000543055 0
-0.00280489 2.62122e-05 0
-0.00291071 -0.000147378 0
-0.00285777 -0.000349333 0
-0.00241379 -0.000597428 0
-0.00200241 -0.000486419 0
-0.00191508 -0.000339146 0
-0.00173047 -0.000230898 0
-0.00147905 -3.23827e-05 0
-0.00153124 0.000152482 0
-0.00181363 -1.29098e-05 0
-0.00174454 -0.000299227 0
-0.0013653 -0.000398446 0
-0.0011645 -0.000551627 0
-0.00112625 -0.000901047 0
-0.000698484 -0.000898818 0
-0.000158151 -0.000631928 0
5.98307e-05 -0.00041006 0
-0.00015793 0.000686641 0
-0.00116467 0.00233936 0
-0.00175448 0.00156419 0
-0.00131352 0.000624028 0
-0.00127439 0.000535625 0
-0.00201205 0.00125173 0
-0.00251535 0.00105015 0
-0.0027893 0.0007758 0
-0.00328119 0.000338075 0
-0.00332268 -0.000321386 0
-0.00281166 -0.000744171 0
-0.00255696 -0.0008918 0
-0.00230499 -0.000846807 0
-0.00176835 -0.000650577 0
-0.00147349 -0.000365829 0
-0.00152506 -0.000113947 0
-0.00128662 0.000134762 0
-0.00101238 8.92784e-05 0
-0.00127603 -0.000209408 0
-0.00151155 -0.000773624 0
-0.00118664 -0.000699365 0
-0.000925356 -0.000906157 0
-0.000789241 -0.0012848 0
-0.000438822 -0.00117702 0
-4.12006e-05 -0.000315271 0
-0.0003895 0.00149742 0
-0.000961875 0.00294817 0
-0.000996502 0.00144513 0
-0.000764632 0.000173875 0
-0.000683399 0.000906443 0
-0.00111113 0.00193404 0
-0.00205002 0.00186126 0
-0.00321674 0.00130111 0
-0.00368257 0.000490923 0
-0.00327066 -0.00064535 0
-0.00266503 -0.00118111 0
-0.00242404 -0.00117764 0
-0.00215847 -0.0012399 0
-0.00169629 -0.00102853 0
-0.00119907 -0.000681665 0
-0.00082423 -0.000357436 0
-0.000585022 -5.9586e-05 0
-0.000468874 4.6676e-05 0
-0.000450311 -5.47632e-05 0
-0.000768034 -0.000500585 0
-0.00103628 -0.000918748 0
-0.000750632 -0.00141288 0
-0.000446275 -0.00138725 0
-0.000535924 -0.00142718 0
-0.000249288 -0.000820188 0
-0.000106519 0.00224166 0
-0.000170214 0.00257138 0
-4.54873e-05 0.00151484 0
0 0 0
-0.00019226 0.00130628 0
-0.000867305 0.00251672 0
-0.0020828 0.00335449 0
-0.00303006 0.00210411 0
-0.00282206 0.000135875 0
-0.00264232 -0.000989809 0
-0.00269527 -0.00150829 0
-0.00223495 -0.0016098 0
-0.00168984 -0.00153552 0
-0.00159475 -0.00139357 0
-0.00127794 -0.00123254 0
-0.000658015 -0.000744739 0
-0.00015287 -0.000393205 0
0 0 0
0 0 0
0 0 0
-0.000484421 -0.000613336 0
-0.000794113 -0.00177784 0
-0.000299783 -0.00151731 0
-5.7e-05 -0.00115841 0
-2.42182e-05 -0.00114329 0
0.000406579 0.00180369 0
0.000224367 0.00307621 0
-0.000147952 0.00144236 0
0 0 0
-0.000104121 0.00165053 0
-0.00103744 0.00378049 0
-0.00179589 0.00393595 0
-0.00170226 0.00231913 0
-0.00146201 -6.51976e-05 0
-0.00145003 -0.00108566 0
-0.00162992 -0.0015047 0
-0.00178565 -0.00178584 0
-0.0018833 -0.00168042 0
-0.00175413 -0.00178774 0
-0.00123169 -0.00163723 0
-0.00061431 -0.00129096 0
-0.00012115 -0.000824108 0
0 0 0
0 0 0
0 0 0
-4.62276e-05 -0.000415497 0
-0.000427917 -0.00134151 0
-0.000483227 -0.00229988 0
0.000121492 -0.00178855 0
0.000280134 -0.000888405 0
-0.000225003 0.00150478 0
-0.000347244 0.0037127 0
-7.89376e-05 0.00109707 0
0 0 0
-0.000113763 0.00197407 0
-0.000672653 0.00504991 0
-0.000749118 0.00353963 0
-0.000229045 0.00167986 0
0 0 0
-0.000440907 -0.0006128 0
-0.00122415 -0.00100705 0
-0.00195377 -0.00144963 0
-0.00212142 -0.00178534 0
-0.0015305 -0.0021927 0
-0.00120539 -0.00192058 0
-0.00134752 -0.00190204 0
-0.000651612 -0.00136856 0
0 0 0
0 0 0
0 0 0
8.85271e-05 -0.000251986 0
0.000186135 -0.000940372 0
-8.3596e-05 -0.00219313 0
-0.000453004 -0.0020861 0
-0.000213545 -0.000622092 0
-0.000282776 0.00226877 0
-6.17118e-05 0.00287788 0
0.00024991 0.00116414 0
0 0 0
-0.000820068 0.0028187 0
-0.00174291 0.00481323 0
-0.00149251 0.0036111 0
-0.00110378 0.00125165 0
-0.00101176 9.55511e-05 0
-0.00101723 -8.60354e-05 0
-0.00149419 -2.7438e-05 0
-0.00210325 -0.00112592 0
-0.00208688 -0.0020215 0
-0.00220132 -0.00226485 0
-0.00225625 -0.00215967 0
-0.00193208 -0.00221411 0
-0.00198176 -0.0014681 0
-0.00184442 -0.000780071 0
-0.000983889 -0.000262825 0
-0.000752311 -9.28549e-05 0
-0.000564215 -0.000401236 0
0.000111083 -0.00193748 0
0.000359352 -0.00148864 0
-0.000344638 -0.00157053 0
-0.00033835 -0.00162948 0
0.000303517 0.00224921 0
0.000622233 0.00225473 0
0.000285801 0.0017166 0
-0.00132654 0.00128515 0
-0.00211009 0.00372812 0
-0.002164 0.00478071 0
-0.00261019 0.00382416 0
-0.00216193 0.000635044 0
-0.00115956 -0.000389146 0
-0.00152658 0.000379283 0
-0.00222417 0.000301589 0
-0.00165899 -0.00126602 0
-0.0015171 -0.00180611 0
-0.00260402 -0.00176006 0
-0.00321554 -0.00215007 0
-0.0029808 -0.00218831 0
-0.00320542 -0.00111859 0
-0.00369962 -0.00136022 0
-0.00290439 -0.000864769 0
-0.00165375 -0.000688626 0
-0.00105262 -0.000548266 0
-0.00113785 -0.00220101 0
-0.000502823 -0.0016391 0
0.000342833 -0.00125491 0
0.000318826 -0.00148907 0
0.000440573 0.00113711 0
0.000119006 0.00351298 0
-0.000917629 0.00245257 0
-0.00143501 0.00216246 0
-0.00258069 0.00448716 0
-0.00367218 0.00552587 0
-0.00182146 0.00203737 0
0 0 0
-0.000920073 0.000125279 0
-0.000930433 0.000380085 0
0 0 0
-0.00103973 -0.000719304 0
-0.00253768 -0.000924319 0
-0.00271523 -0.00138924 0
-0.00282056 -0.00165138 0
-0.00396714 -0.00166205 0
-0.0042133 -0.00151013 0
-0.00357359 -0.00112847 0
-0.00383703 -0.00134287 0
-0.00363111 -0.00225741 0
-0.0019379 -0.00151213 0
-0.00146412 -0.00178085 0
-0.00136513 -0.00306534 0
-0.000320202 -0.00281778 0
0.000320384 -0.000764912 0
-0.000642353 0.00139493 0
-0.00080869 0.0038383 0
-0.000643862 0.00334424 0
-0.00248783 0.00343085 0
-0.00373705 0.00504217 0
-0.00209582 0.00429859 0
-0.000775322 0.000355384 0
-0.00186832 0.000354631 0
-0.00132333 -0.000199598 0
0 0 0
-0.000485914 0.000465764 0
-0.00162682 0.000586358 0
-0.00239075 -0.000214482 0
-0.00255088 -0.00121274 0
-0.00312134 -0.000902267 0
-0.00425586 -0.000899513 0
-0.00450078 -0.00170528 0
-0.00394128 -0.00122981 0
-0.00379794 -0.00143142 0
-0.00413064 -0.00246733 0
-0.00323506 -0.00272735 0
-0.00156599 -0.00257933 0
-0.00109113 -0.00257893 0
-0.00191005 -0.00309344 0
-0.000940348 -0.00144879 0
-0.000252124 0.00276994 0
-0.000348686 0.00248258 0
-0.000888773 0.00447762 0
-0.00287077 0.00615205 0
-0.00340342 0.00446198 0
-0.00314086 0.00273466 0
-0.00476532 0.00209004 0
-0.00488233 -3.02e-05 0
-0.00326079 -0.00164939 0
-0.00303529 -0.000439773 0
-0.00316579 0.00131594 0
-0.00271785 0.000986089 0
-0.00202129 -0.000194619 0
-0.00285801 -0.000354038 0
-0.00370235 -0.000348192 0
-0.00310914 -0.000832443 0
-0.00365073 -0.000780989 0
-0.00515336 -0.00169588 0
-0.00419758 -0.00233399 0
-0.00333067 -0.00191044 0
-0.00403766 -0.00353491 0
-0.00345136 -0.0051905 0
-0.00114436 -0.00263605 0
-0.000572398 -0.00260013 0
-0.000197279 -0.00350111 0
0.000509496 0.00238925 0
-0.000568487 0.00399082 0
-0.00250104 0.0059354 0
-0.0024517 0.00625097 0
-0.00225094 0.00486926 0
-0.00368911 0.0041297 0
-0.00429095 0.00286914 0
-0.00472158 -0.00041905 0
-0.00484031 -0.00223986 0
-0.00417816 -0.00101308 0
-0.0036761 0.000956502 0
-0.00290196 5.32738e-06 0
-0.00237253 -0.00049989 0
-0.00242164 0.000188697 0
-0.00253921 -0.000168238 0
-0.00272648 -0.000700086 0
-0.00353677 0.000330886 0
-0.00453312 -0.0014201 0
-0.00452107 -0.00238281 0
-0.00358909 -0.003058 0
-0.00277346 -0.0030291 0
-0.00389814 -0.00498364 0
-0.00287361 -0.00520189 0
-0.00025444 -0.00412259 0
0.000867508 -0.00247686 0
-4.02471e-05 0.00166408 0
-0.00138603 0.00708999 0
-0.00220484 0.00632968 0
-0.00163984 0.00469771 0
-0.00219163 0.00632821 0
-0.00335018 0.00584246 0
-0.00177507 0.000876915 0
0 0 0
-0.00174917 -0.00124818 0
-0.0028534 -0.00116148 0
-0.00133646 -0.000343394 0
-0.000920459 -0.000354344 0
-0.00161608 5.11742e-05 0
-0.00120963 -0.000248663 0
-0.0010738 5.27972e-05 0
-0.00281482 0.000648896 0
-0.00279558 7.13035e-05 0
-0.00147208 -0.00106108 0
-0.00363 -0.000793466 0
-0.00591894 -0.00505146 0
-0.00364756 -0.00357384 0
-0.00282069 -0.00378379 0
-0.00333768 -0.00684076 0
-0.00297992 -0.00722411 0
-0.000447282 -0.00222847 0
-0.00158085 0.00403699 0
-0.00171579 0.00583753 0
-9.85797e-05 0.00607171 0
-0.00191872 0.00680302 0
-0.00263859 0.00580841 0
-0.000214046 0.00360507 0
0.000649886 0.000465963 0
0 0 0
0.000262583 -0.000374427 0
8.19746e-05 -0.00103753 0
-0.000185973 -0.00122955 0
0 0 0
-0.000196156 0.000228574 0
-0.000794118 -4.63147e-05 0
-0.00129848 0.000532287 0
-0.00119449 0.00110924 0
-0.000823682 -0.000679075 0
-0.00112596 -5.73645e-05 0
-0.00150641 0.000326813 0
-0.00333643 -0.00277893 0
-0.00477193 -0.00451936 0
-0.00369767 -0.00654083 0
-0.00176418 -0.00484474 0
-0.00398745 -0.00669883 0
-0.00198794 -0.0061281 0
0.00073149 0.00539164 0
0.000587159 0.00431193 0
-0.00182774 0.00749787 0
-0.0040566 0.00904653 0
-0.00298155 0.00414985 0
-0.0010543 0.00125029 0
-0.000241401 0.00125533 0
0 0 0
-0.000238097 -0.000411859 0
-0.000440898 -0.000923401 0
-0.00104775 -0.000587068 0
-0.000750718 -0.000280127 0
0.000182628 -0.000184316 0
-0.000303806 0.00109773 0
-0.000625723 0.00090758 0
0.00044319 -0.000101235 0
0.000128054 -0.00039815 0
-0.000652599 0.000309832 0
0 0 0
-0.000366341 0.000293377 0
-0.003353 -0.00289986 0
-0.00674553 -0.00876118 0
-0.00335249 -0.00571117 0
-0.000397368 -0.00705159 0
0.00128364 -0.0080164 0
0.000870294 0.00291766 0
-0.00225494 0.00995244 0
-0.00597255 0.00981688 0
-0.00385537 0.00597567 0
-0.0021535 0.0037646 0
-0.0026437 0.00124106 0
-0.00128992 -0.00113342 0
0 0 0
-0.000540589 0.000539082 0
-0.000915527 -0.00102449 0
-0.00112064 -0.000383079 0
-0.00169752 -0.000657989 0
-0.00194696 -0.000320689 0
-0.000428646 6.32538e-05 0
0.000778307 0.000415051 0
0.00032766 0.000341423 0
1.04096e-05 0.000122398 0
4.07843e-05 -3.05596e-05 0
0 0 0
-0.000199274 0.000624155 0
0.000141962 -0.000154274 0
-0.00350726 -0.00417229 0
-0.00592379 -0.00973722 0
-0.00367424 -0.013256 0
0.00105801 -0.00540643 0
-0.00198091 0.00446817 0
-0.00471614 0.0138013 0
-0.00390531 0.00919588 0
-0.0050566 0.00572946 0
-0.00927979 0.00466277 0
-0.00913756 0.000126809 0
-0.00364362 -0.00500788 0
0 0 0
-0.00159447 0.0018809 0
-0.00311023 1.20937e-05 0
-0.00194795 -0.00138896 0
-0.000833997 -9.48072e-05 0
-0.00132221 -0.000112878 0
-0.00120097 -0.00133774 0
-0.0004597 -0.000918161 0
2.77968e-05 0.00146795 0
0 0 0
0 0 0
0 0 0
-0.00034706 6.24724e-05 0
0.00100764 0.000169583 0
2.88615e-05 -0.000202314 0
-0.00571483 -0.00589302 0
-0.0104363 -0.0166575 0
-0.00335439 -0.00948633 0
-0.00255878 0.0111529 0
-0.00233163 0.00891253 0
-0.00146027 0.0102732 0
-0.00795778 0.0136952 0
-0.00849414 0.00307961 0
-0.00530394 -0.00249849 0
-0.00840101 -0.00627177 0
-0.0086941 -0.00249358 0
-0.00258 -0.000576052 0
-0.00115449 0.0018774 0
-0.0038744 -0.00227423 0
-0.003253 -0.000777958 0
-0.00079799 -0.00178511 0
-0.000265889 0.000125652 0
-0.00171709 -0.00112002 0
-0.00102396 0.000104648 0
0 0 0
0 0 0
0 0 0
0 0 0
0 0 0
0 0 0
0 0 0
-0.00457599 -0.0109962 0
-0.00392009 -0.0211032 0
0.00362956 0.00956167 0
-0.000985687 0.0132681 0
-0.0107767 0.014991 0
-0.0103972 0.0138283 0
-0.0051532 0.000838559 0
-0.00373061 -0.00168664 0
-0.00795471 -0.00210754 0
-0.0103081 -0.00514872 0
-0.00720417 -0.00405513 0
-0.00402226 0.00131773 0
-0.00259162 -0.00123538 0
-0.0019662 -0.00220803 0
-0.000294207 -0.00441419 0
0.00188096 0.000170919 0
0.00129209 0.000903307 0
-0.000143758 -0.00137837 0
0 0 0
0 0 0
0 0 0
0 0 0
-0.00435008 0.003398 0
-0.0108433 0.000159333 0
-0.00831039 -0.00184105 0
0.00345993 -0.0165606 0
0.00708218 -0.0173684 0
-0.00270178 0.00770255 0
-0.013334 0.0293868 0
-0.0103142 0.012079 0
0.000180829 0.00539562 0
0 0 0
-0.00171036 0.000354572 0
-0.00130131 0.000284473 0
-0.00279095 -0.00408321 0
-0.00563674 -0.00548878 0
-0.00271421 -0.00506714 0
0 0 0
0.000265698 -0.00456263 0
-0.0016464 -0.00259578 0
-0.00213253 -0.00397194 0
0.00206829 0.00094619 0
-0.000495944 0.00259757 0
-0.00425171 2.50534e-05 0
-0.00200978 -0.00206633 0
-2.06196e-05 0.00125026 0
-0.00710476 0.00554339 0
-0.00806449 0.00595023 0
-0.00420746 0.00188812 0
-0.0057584 -0.0045803 0
-0.00714193 -0.0313858 0
-0.00214405 -0.0101087 0
-0.0063165 0.0211395 0
-0.00709047 0.023056 0
0.00593137 0.0023801 0
0.0161456 -1.97459e-05 0
0.0156489 0.00403031 0
0.0120395 -0.000598866 0
0.0157337 -0.000972613 0
0.0167475 -0.00101934 0
0.0102224 -0.00158013 0
0.00569963 -0.00657349 0
0.0108535 -0.00378408 0
0.0079001 0.00073353 0
0 0 0
0.00223072 -0.00667577 0
0.00488115 -7.77677e-05 0
0.00206765 0.00713181 0
0 0 0
0.00317193 -0.00573622 0
0.00556752 0.00273978 0
0.00330079 0.00926568 0
0.00640161 0.000511286 0
0.0118383 0.00110684 0
0.00728869 0.000366483 0
-0.00613545 -0.0222449 0
-0.00594157 -0.0224735 0
0.0234874 0.0152632 0
0.0515406 0.00362597 0
0.0541445 -0.00193142 0
0.0489126 -0.00170682 0
0.0523484 0.00382359 0
0.0560111 -0.00135926 0
0.0525438 -0.00111812 0
0.0511694 6.01345e-05 0
0.0532155 0.00114142 0
0.0520597 -0.00201079 0
0.0435117 -0.00380661 0
0.0438523 0.00384649 0
0.0494933 -0.000324307 0
0.0440851 -0.00359929 0
0.0384751 -0.000278135 0
0.0440835 0.00396109 0
0.0497223 -0.000158795 0
0.0438587 -0.00381388 0
0.0402519 0.00154888 0
0.0486771 0.00396552 0
0.0521999 -0.00202305 0
0.0479584 -0.000607734 0
0.0525888 0.00362745 0
0.0523596 -0.00372848 0
0.0238929 -0.0155438 0


