# vtk DataFile Version 4.0
SiwiRVisFile
ASCII
DATASET STRUCTURED_POINTS
DIMENSIONS 25 25 1
ORIGIN 0 0 0
SPACING 1 1 1
POINT_DATA 625

SCALARS flags double 1
LOOKUP_TABLE default
1
1
1
1
1
1
1
1
1
1
1
1
1
1
1
1
1
1
1
1
1
1
1
1
1
1
1
1
1
1
1
1
1
1
1
1
1
1
1
1
1
1
1
1
1
1
1
1
1
1
1
1
1
1
1
1
1
1
1
1
1
1
1
1
1
1
1
1
1
1
1
1
1
1
1
1
1
1
1
1
1
1
1
1
1
1
1
1
1
1
1
1
1
1
1
1
1
1
1
1
1
1
1
1
1
1
1
1
1
1
1
1
1
1
1
1
1
1
1
1
1
1
1
1
1
1
1
1
1
1
1
1
1
1
1
1
1
1
1
1
1
1
1
1
1
1
1
1
1
1
1
1
1
1
1
1
1
1
1
1
1
1
1
1
1
1
1
1
1
1
1
1
1
1
1
1
1
1
1
1
1
1
1
1
1
1
1
1
1
1
1
1
1
1
1
1
1
1
1
1
1
1
1
1
1
1
1
1
1
1
1
1
1
1
1
1
1
1
1
1
1
1
1
1
1
1
1
1
1
1
1
1
1
1
1
1
1
1
1
1
1
1
1
1
1
1
1
1
1
1
1
1
1
1
1
1
1
1
1
1
1
1
1
1
1
1
1
1
1
1
1
1
1
1
1
1
1
1
1
1
1
1
1
1
1
1
1
1
1
1
1
1
1
1
1
1
1
1
1
1
1
1
1
1
1
1
1
1
1
1
1
1
1
1
1
1
1
1
1
1
1
1
1
1
1
1
1
1
1
1
1
1
1
1
1
1
1
1
1
1
1
1
1
1
1
1
1
1
1
1
1
1
1
1
1
1
1
1
1
1
1
1
1
1
1
1
1
1
1
1
1
1
1
1
1
1
1
1
1
1
1
1
1
1
1
1
1
1
1
1
1
1
1
1
1
1
1
1
1
1
1
1
1
1
1
1
1
1
1
1
1
1
1
1
1
1
1
1
1
1
1
1
1
1
1
1
1
1
1
1
1
1
1
1
1
1
1
1
1
1
1
1
1
1
1
1
1
1
1
1
1
1
1
1
1
1
1
1
1
1
1
1
1
1
1
1
1
1
1
1
1
1
1
1
1
1
1
1
1
1
1
1
1
1
1
1
1
1
1
1
1
1
1
1
1
1
1
1
1
1
1
1
1
1
1
1
1
1
1
1
1
1
1
1
1
1
1
1
1
1
1
1
1
1
1
1
1
1
1
1
1
1
1
1
1
1
1
1
1
1
1
1
1
1
1
1
1
1
1
1
1
1
1
1
1
1
1
1
1
1
1
1
1
1
1
1
1
1
1
1
1
1
1
1
1
1
1
1
1
1
1
1
1
1
1
1
1
1
1
1
1
1
1
1
1
1
1
1
1
1
1
1
1
1
1
1
1
1
1
1
1
1
1
1
1
1
1
1
1
1
1
1
1
1
1

SCALARS density double 1
LOOKUP_TABLE default
1.00098
1.00102
1.00113
1.0011
1.001
1.00111
1.00097
1.00058
1.00045
1.00045
0.999926
0.999488
0.999778
0.999678
0.999106
0.999224
0.999533
0.999095
0.998949
0.999418
0.999367
0.999019
0.999476
0.999821
0.999342
1.00123
1.00087
1.00091
1.00129
1.00097
1.00065
1.00089
1.00087
1.00027
1.00012
1.0002
0.999854
0.999546
0.99958
0.999514
0.999331
0.999247
0.999255
0.999342
0.999371
0.999291
0.999279
0.999495
0.99954
0.999344
1.00097
1.00111
1.00091
1.00088
1.00102
1.00081
1.00058
1.00066
1.00052
1.00006
1.00005
1.00016
0.999686
0.99948
0.999784
0.99953
0.999146
0.999507
0.999652
0.999198
0.999402
0.999793
0.999332
0.999121
0.999731
1.00091
1.00129
1.00108
1.00063
1.0008
1.00104
1.00065
1.00032
1.00058
1.00046
0.999927
0.999873
1.00007
0.999877
0.999554
0.999575
0.999607
0.999499
0.999505
0.999625
0.999603
0.999453
0.999381
0.999384
0.999448
1.00124
1.00069
1.00097
1.00115
1.00077
1.00068
1.00086
1.00052
1.00028
1.00042
1.00024
0.999917
1.00006
1.00008
0.999706
0.999697
0.999855
0.999546
0.999487
0.999929
0.999593
0.999037
0.999533
0.999689
0.999008
1.00113
1.00078
1.00101
1.00124
1.00098
1.00056
1.00069
1.00086
1.00036
1.00005
1.00041
1.00038
0.999951
0.999976
1.00023
0.999881
0.999573
0.999816
0.999873
0.999562
0.999428
0.999435
0.999183
0.999134
0.999341
1.00059
1.0016
1.00122
1
1.00105
1.00113
1.00053
1.00052
1.00071
1.00029
1.00015
1.00032
1.0002
1.00013
1.00022
0.999945
0.999735
1
1
1
0.999219
0.99964
0.998889
0.998693
0.999479
1.00109
1.00139
1.00112
1
1.00101
1.00116
1.00094
1.00046
1.00054
1.00069
1.00016
0.999978
1.00045
1.00037
0.99979
0.999955
1.00022
1
1
1
0.999046
0.998712
0.999178
0.999116
0.998587
1.00152
1.00025
1.00111
1
1.00102
1.00052
1.00128
1.00124
1
1.00052
1.00061
1.00029
1.00015
1.00014
1.00001
1.00004
0.999936
1
1
1
0.998853
0.998404
0.999177
0.99933
0.998316
1.00066
1.00126
1.00149
1
1.00136
1.00122
1.00083
1.00098
1.00089
1.00043
1.00056
1.00063
1.00003
0.999948
1.00038
0.999862
0.999243
0.999649
0.999407
0.998371
0.998853
0.999422
0.998437
0.998405
0.999341
1.00062
1.00222
1.00119
0.999954
1.00125
1.00189
1.00062
1.00046
1.00129
1.00084
1.00028
1.00024
1.00028
1.0001
0.999932
0.999625
0.999475
0.999603
0.999011
0.99832
0.998974
0.999261
0.998399
0.998202
0.999176
1.0019
1.00039
1.00074
1.00187
1.00073
1.00036
1.00136
1
1.00037
1.00072
1
0.999936
1.00017
1.00007
0.999485
0.999799
0.999912
0.998666
0.998579
0.999594
0.998549
0.997698
0.999273
0.999266
0.997633
1.00141
0.999897
1.00101
1.00203
1.00055
0.99976
1.0009
1.00115
0.999704
1
1.00048
1.0001
0.999702
0.999834
0.999842
0.999687
0.999369
0.9989
0.998882
0.998882
0.998374
0.998199
0.998738
0.999019
0.998342
0.999976
1.0025
1.00132
0.999275
1.00106
1.00175
0.999551
0.999872
1.0008
1.00046
0.999891
1.00014
0.999989
0.99979
1.00002
0.999363
0.998859
0.999761
0.999036
0.997264
0.99866
0.999751
0.997425
0.997581
1.00014
1.00107
1.00164
1.00058
1.00007
1.00089
1.00103
1
0.999846
1.0006
1.00049
0.999978
1.00013
1.00026
0.999751
0.999551
0.999711
0.999411
0.998913
0.99852
0.998544
0.998343
0.99827
0.998528
0.998268
0.998268
1.00218
0.998445
1.00031
1.0029
0.999858
0.998561
1.0017
1
0.999855
1.00001
1.00069
1.00014
0.99981
0.999982
0.999566
0.999659
0.99975
0.998218
0.998293
0.999846
0.997738
0.996562
0.999728
0.999612
0.996187
0.999643
1.00052
1.00104
1.00031
1.00021
1.00031
1.00007
1
1.00012
1.00024
1.00042
1
0.999652
1.00012
0.999932
0.999159
0.999285
0.999477
0.998705
0.99758
0.998393
0.998827
0.997354
0.998045
0.999574
0.998814
1.00351
1.00066
0.99735
1.00101
1.00246
0.998345
1
1.00092
1.00044
0.999464
1.00031
1.00023
0.99934
0.999744
0.999871
0.999038
0.999599
1
0.996188
0.998825
1.00023
0.996369
0.996282
1.00061
1.00215
0.998703
0.999249
1.00166
0.999751
0.998855
1.00091
1
1.00014
1.00019
1.0001
1.00018
1
0.999537
0.999423
1.00011
0.999636
0.999002
1
0.999569
0.997235
0.99637
1.00006
0.998976
0.994677
1.00118
0.99622
0.999871
1.00306
0.999064
0.997721
1.00155
1
0.999362
0.999857
1.0009
0.999587
0.999436
1.00057
0.999696
0.998743
1
1
1
0.999628
0.997579
0.99582
0.999655
0.999825
0.994966
0.996111
1.00341
1.00109
0.996014
1.00034
1.0021
0.998705
0.99884
1.00067
1.00032
1
0.999857
0.999705
0.999605
1.0001
0.999562
1
1
1
1
1
1
1
0.996099
1.00418
1.00005
1.00336
0.998843
0.996679
1.00053
1.00137
0.998625
0.999719
1.00095
0.999712
0.999081
1.00046
1.00045
0.998416
0.999268
1.00102
1
1
1
1
1.00303
1.00827
0.999047
0.99944
1.00564
1.00354
0.990804
0.997792
1.00597
1
0.997353
1.00119
1.00106
0.998767
1.0001
1
0.99966
0.999739
1.00032
0.998485
0.998371
1.00144
0.996002
0.996879
1.0076
1.00402
0.993066
1.00327
1.01253
0.996372
0.994917
0.997219
1.00107
1.00018
0.99703
0.99906
1.00063
0.999397
1.00014
1.00209
1.00077
1.00604
1
1.00039
1.00021
0.99766
1
0.997641
1.00195
1.00392
0.99915
0.999036
1.00618
1.00441
1.00146
0.995169
1.01077
0.999729
0.992853
1.0007
1.00169
0.998183
0.999034
1.00135
1.00086
1.00302
1.00758
1.00122
0.994291
0.999311
1.00217
0.999274
1.00413
1.00373
0.993505
1.00054
1.0127
0.998732
0.990546
1.0216

VECTORS velocity double
6.50511e-05 6.57286e-05 0
7.66344e-05 0.000123281 0
8.37812e-05 3.82135e-05 0
0.000188416 -1.88874e-05 0
0.000311403 1.58673e-05 0
0.000197949 5.46711e-05 0
0.000132618 -6.60929e-05 0
0.000252425 -8.62786e-05 0
0.000287581 3.76864e-05 0
0.000163779 1.01809e-05 0
0.000216176 -3.96997e-05 0
0.000297162 7.51692e-06 0
0.00034588 8.71151e-06 0
0.00035125 3.6408e-05 0
0.000350518 5.04211e-05 0
0.000365581 2.23416e-05 0
0.000427176 3.58756e-05 0
0.000394582 3.61025e-05 0
0.00033078 2.29118e-05 0
0.000318844 -6.89746e-05 0
0.000332927 -2.00476e-05 0
0.000217572 -2.82147e-05 0
0.000140471 -8.65859e-05 0
0.000107333 -0.000131329 0
6.70804e-05 -7.5584e-05 0
8.38508e-05 0.000156718 0
8.58812e-05 0.000305038 0
0.000146223 8.00472e-05 0
0.00021513 -1.58735e-05 0
6.20629e-05 0.00014577 0
-3.98213e-05 9.02016e-05 0
9.87243e-05 -0.000152042 0
-1.15134e-05 -9.69604e-05 0
-0.000187434 8.11115e-05 0
-5.73753e-05 -5.84308e-05 0
0.000193689 -0.000108509 0
0.00012959 5.51674e-05 0
0.000102932 -1.53332e-05 0
0.000326369 -2.62086e-05 0
0.000451224 0.000128079 0
0.000288615 0.000102765 0
0.000350637 -4.66407e-05 0
0.000559555 5.55968e-05 0
0.000470432 0.000135115 0
0.000240693 -9.8926e-05 0
0.000316346 -0.000174017 0
0.000412191 -9.84687e-05 0
0.000251075 -0.000133047 0
0.000162368 -0.000382182 0
0.000131179 -0.000162751 0
-4.19616e-06 0.000352606 0
4.52298e-05 0.000391731 0
-1.03995e-05 0.000364427 0
-0.000378061 0.00027183 0
-0.000442622 0.000270906 0
-0.000263509 4.95626e-05 0
-0.000362523 2.78704e-05 0
-0.000699957 8.74714e-05 0
-0.000582766 -5.39286e-05 0
-0.000427139 -0.000123522 0
-0.00052055 -9.99594e-05 0
-0.000358586 -4.32581e-05 0
-0.000131619 -5.23177e-05 0
-0.00019508 -0.000107929 0
-9.5609e-05 3.90154e-05 0
4.56e-05 0.000142986 0
-0.00012529 -5.25126e-05 0
-0.000399148 4.67107e-06 0
-0.000246544 -1.4096e-05 0
-6.91174e-05 -0.000110286 0
-0.000196706 -0.000374312 0
-7.37353e-05 -0.000497733 0
0.000256344 -0.000319127 0
0.000139701 -0.000434394 0
8.90032e-07 -0.000384355 0
0.000155183 0.000447516 0
-1.37264e-05 0.000783929 0
-0.000534882 0.000882857 0
-0.000703121 0.00056053 0
-0.00040845 0.000174596 0
-0.000438953 0.000125155 0
-0.000663054 0.000217562 0
-0.000646696 0.000225395 0
-0.000508449 -0.000115087 0
-0.000622112 -6.70361e-05 0
-0.000697771 -7.88259e-05 0
-0.000401046 -0.000256066 0
-0.000142733 -0.000153553 0
-0.000227917 -0.00015304 0
-0.000245041 -0.000106664 0
-8.72049e-05 4.15668e-07 0
-8.9512e-05 0.000127789 0
-0.000340453 9.05746e-06 0
-0.000321079 -0.000284615 0
-0.000134446 -0.000361388 0
-0.000271588 -0.000432392 0
-0.000492379 -0.000881995 0
-0.000151257 -0.000957315 0
0.000268263 -0.000669883 0
0.000222482 -0.000466021 0
-2.58085e-05 0.000518004 0
-0.00057022 0.00171776 0
-0.000737165 0.00104136 0
-0.00017109 0.000392141 0
-1.60409e-05 0.000262139 0
-0.000471113 0.000640811 0
-0.000675871 0.000312858 0
-0.000677209 0.000267009 0
-0.000944882 0.000154826 0
-0.000910247 -0.00012499 0
-0.000447427 -0.000282943 0
-0.000365116 -0.000350502 0
-0.00034895 -0.000375651 0
-2.50453e-06 -0.000292137 0
8.75292e-05 -0.000140675 0
2.67084e-05 -0.000315343 0
0.000366561 -8.82436e-05 0
0.000641596 -0.000136186 0
0.000282279 -0.000169014 0
-0.000174757 -0.000584526 0
-7.09209e-05 -0.000560058 0
-9.87768e-05 -0.000896909 0
-0.000297277 -0.00149869 0
-0.000159618 -0.00137831 0
6.73209e-05 -0.000394442 0
-0.000238426 0.00112398 0
-0.000591208 0.00212671 0
-0.000332211 0.000759638 0
8.66731e-05 8.26548e-05 0
7.31008e-05 0.000647352 0
-8.12865e-05 0.0011098 0
-0.000476789 0.000947108 0
-0.00116913 0.000591023 0
-0.0013902 0.000285963 0
-0.000997334 -0.000336301 0
-0.000497256 -0.000583935 0
-0.000427429 -0.000440287 0
-0.000340417 -0.00055604 0
-2.51573e-05 -0.000523058 0
0.000265483 -0.000420833 0
0.000345319 -0.000602122 0
0.000549177 -0.000623264 0
0.000609576 -0.000160876 0
0.000375065 -7.52803e-06 0
-2.52039e-05 -0.000308351 0
-0.000421519 -0.000660755 0
-0.000266769 -0.00134446 0
-6.00202e-05 -0.00149958 0
-0.000277316 -0.00168597 0
-0.00014255 -0.000849311 0
-0.000105928 0.00180562 0
3.19152e-05 0.00166124 0
0.000146163 0.00092958 0
0 0 0
9.5635e-05 0.000959819 0
-6.18729e-05 0.00143683 0
-0.000807698 0.00206105 0
-0.00124363 0.00118675 0
-0.000765038 -3.40517e-06 0
-0.000596363 -0.000507848 0
-0.000747047 -0.000720886 0
-0.000383178 -0.000715741 0
-2.65364e-06 -0.000620254 0
-0.000242139 -0.000677127 0
-9.17028e-05 -0.000901037 0
0.000418499 -0.000781464 0
0.000320218 -0.000803868 0
0 0 0
0 0 0
0 0 0
-0.00036317 -0.000611394 0
-0.000483371 -0.00207532 0
3.72789e-05 -0.00181583 0
0.000119119 -0.0015596 0
1.96338e-05 -0.00135505 0
0.000451921 0.0014159 0
0.00020938 0.00220875 0
-0.000217515 0.00104856 0
0 0 0
6.96005e-05 0.00107744 0
-0.000532213 0.00248578 0
-0.000957598 0.00233123 0
-0.000499802 0.00121799 0
-5.71329e-05 -0.000119518 0
-7.50723e-05 -0.000421699 0
-0.000268733 -0.000595035 0
-0.000265538 -0.000805611 0
-0.000230379 -0.000618829 0
-0.000247459 -0.000765627 0
-8.22428e-05 -0.00106463 0
5.68021e-05 -0.00106826 0
7.55857e-05 -0.000767326 0
0 0 0
0 0 0
0 0 0
-6.35487e-05 -0.000603686 0
-0.000351663 -0.00184732 0
-0.000250794 -0.00275434 0
0.000358055 -0.00208371 0
0.000380106 -0.00102523 0
-0.000185111 0.00111601 0
-0.000341192 0.00316196 0
-0.000122117 0.000696166 0
0 0 0
-9.77982e-05 0.00131987 0
-0.00032652 0.00347927 0
9.8866e-05 0.0019391 0
0.00026974 0.000941678 0
0 0 0
0.000197365 -0.00026466 0
7.55268e-05 -0.000177782 0
-0.000671572 -0.000454006 0
-0.00083729 -0.000699608 0
-0.000133405 -0.00101198 0
9.08681e-05 -0.000980781 0
-0.000387802 -0.00130984 0
-0.000265801 -0.000906486 0
0 0 0
0 0 0
0 0 0
0.00029351 -0.000846858 0
0.000525761 -0.001674 0
7.17265e-05 -0.00294743 0
-0.000408945 -0.00262854 0
-0.000187118 -0.000912641 0
-0.000287228 0.00203131 0
1.96385e-05 0.00238423 0
0.000331347 0.000982242 0
0 0 0
-0.000340172 0.00186377 0
-0.000761081 0.00299425 0
-0.00068174 0.00226538 0
-0.000449904 0.000897849 0
-0.000251843 2.65246e-05 0
-0.000309795 -6.45459e-05 0
-0.000484412 0.000433867 0
-0.000599832 -0.000115257 0
-0.000529768 -0.000821968 0
-0.000647748 -0.00111356 0
-0.000736967 -0.00106941 0
-0.000632396 -0.00127039 0
-0.000773044 -0.000809357 0
-0.000731203 -0.000535688 0
-0.000104961 -0.000184431 0
0.00011832 -0.000187036 0
0.000188141 -0.000962902 0
0.000565523 -0.00255049 0
0.000618145 -0.00199029 0
-0.000208957 -0.00200493 0
-0.000306422 -0.00181332 0
0.000428934 0.00214834 0
0.000745201 0.00189799 0
0.000560843 0.00161326 0
-0.000486799 0.000960898 0
-0.000947015 0.00239296 0
-0.00109556 0.00293793 0
-0.00158986 0.00260678 0
-0.00127197 0.000445005 0
-0.000591762 -0.000325825 0
-0.000893187 0.000264993 0
-0.00113292 0.000375292 0
-0.000325012 -0.000249336 0
-7.92191e-05 -0.000595436 0
-0.00104592 -0.000596821 0
-0.00150089 -0.00117852 0
-0.00099255 -0.00127014 0
-0.00122724 -0.000590505 0
-0.00190636 -0.0010243 0
-0.00122107 -0.000811812 0
-0.000175646 -0.0008443 0
0.000128869 -0.000860078 0
-0.000411759 -0.00273855 0
-0.000203932 -0.00211403 0
0.000468806 -0.00186686 0
0.000349851 -0.00186603 0
0.000571029 0.00106304 0
0.000458176 0.0033454 0
-0.000284391 0.00212606 0
-0.000423891 0.00134516 0
-0.00109182 0.00307776 0
-0.0021939 0.0040397 0
-0.00122399 0.00127885 0
0 0 0
-0.000529478 7.92209e-05 0
-0.000536141 0.000223193 0
0 0 0
-0.000477732 -0.000264452 0
-0.00116544 -2.74091e-05 0
-0.00104813 -0.00030012 0
-0.00107578 -0.000836895 0
-0.00211163 -0.00102395 0
-0.00223069 -0.000926574 0
-0.00158467 -0.000736213 0
-0.00205414 -0.00108088 0
-0.00214862 -0.00198634 0
-0.000897977 -0.00134307 0
-0.000824244 -0.00177876 0
-0.000957236 -0.00326765 0
-4.69346e-05 -0.00319888 0
0.000376431 -0.000832347 0
-0.000522046 0.00143742 0
-0.000505775 0.0036967 0
8.83882e-05 0.00278836 0
-0.00122282 0.00231789 0
-0.00233142 0.00361508 0
-0.00106947 0.00337303 0
0.00017204 0.000143985 0
-0.000746116 0.000407884 0
-0.000779995 4.44028e-05 0
0 0 0
-9.80328e-05 0.000372696 0
-0.000920563 0.000534542 0
-0.00150489 0.000249236 0
-0.00105216 -0.000554377 0
-0.00122667 -0.000177118 0
-0.00233359 -0.000331986 0
-0.00254283 -0.00119801 0
-0.00197496 -0.000802889 0
-0.00210726 -0.00104813 0
-0.00264173 -0.00211156 0
-0.00203342 -0.00251929 0
-0.000631559 -0.00250698 0
-0.000468885 -0.00282963 0
-0.00161513 -0.00345586 0
-0.000914805 -0.00167006 0
-0.000108441 0.00293764 0
7.04057e-06 0.00237643 0
-0.000126948 0.00367629 0
-0.00164897 0.00494132 0
-0.00210055 0.00319002 0
-0.00186771 0.00191765 0
-0.00331404 0.00175649 0
-0.00337535 0.000152412 0
-0.00177043 -0.00083317 0
-0.00182794 -4.57976e-05 0
-0.0023622 0.0011375 0
-0.00186821 0.0008579 0
-0.000984932 -7.90372e-06 0
-0.00168073 -6.84635e-05 0
-0.00231185 0.000204988 0
-0.00150139 -0.000230341 0
-0.00210425 -0.000266692 0
-0.00371942 -0.0011459 0
-0.00291722 -0.00174218 0
-0.00203062 -0.0013296 0
-0.00287409 -0.00303852 0
-0.00241882 -0.00476658 0
-0.000519532 -0.00248976 0
-0.000208052 -0.00252339 0
-0.000156901 -0.00342822 0
0.000661889 0.00262689 0
-0.000120035 0.00386803 0
-0.00166893 0.00492244 0
-0.00136717 0.00509096 0
-0.00118083 0.00392661 0
-0.0027584 0.00333869 0
-0.00336199 0.00243347 0
-0.00350787 -0.000223696 0
-0.003496 -0.0012213 0
-0.00307777 1.79443e-05 0
-0.00267435 0.00100963 0
-0.00187875 4.23259e-05 0
-0.00136673 -0.000200274 0
-0.00148007 0.000562886 0
-0.00162208 0.000185028 0
-0.00171241 -7.88313e-05 0
-0.00283749 0.0011511 0
-0.00397707 -0.000796982 0
-0.00394201 -0.00199508 0
-0.00275181 -0.00278575 0
-0.00194182 -0.00272468 0
-0.0029128 -0.00461553 0
-0.00223559 -0.00493985 0
0.000179285 -0.00398673 0
0.000886254 -0.00243864 0
0.000107117 0.00188463 0
-0.000945019 0.00692517 0
-0.00152697 0.00534242 0
-0.00088142 0.00354654 0
-0.00137284 0.00556514 0
-0.00267814 0.005516 0
-0.00155213 0.000621616 0
0 0 0
-0.00135184 -0.000431378 0
-0.00220772 5.06377e-05 0
-0.000854181 -9.92623e-05 0
-0.000421238 -0.00024821 0
-0.00100854 0.000379496 0
-0.00060712 0.000217381 0
-0.000694978 0.000609176 0
-0.00262239 0.00146655 0
-0.00274651 0.00107425 0
-0.00119457 -0.000406689 0
-0.00333339 -0.00054881 0
-0.00523292 -0.00497812 0
-0.00302914 -0.00332155 0
-0.00188295 -0.00347365 0
-0.00278766 -0.00634873 0
-0.00256423 -0.00684862 0
-0.000488616 -0.00202139 0
-0.00144196 0.00416086 0
-0.00138421 0.0056349 0
0.000283254 0.00532026 0
-0.00152827 0.00577345 0
-0.00224879 0.00520729 0
-3.11757e-05 0.00381529 0
0.000654893 0.000625841 0
0 0 0
0.00027043 0.000455421 0
0.000317145 3.81692e-05 0
9.07913e-05 -0.000513027 0
0 0 0
-3.14059e-05 0.0005493 0
-0.000660641 0.000612244 0
-0.00151114 0.00147554 0
-0.00148861 0.00200544 0
-0.0010449 3.49637e-05 0
-0.000817612 0.000131273 0
-0.00107544 0.000331643 0
-0.00274132 -0.00272355 0
-0.00472135 -0.0045671 0
-0.00305833 -0.00648992 0
-0.00143729 -0.00416003 0
-0.00351718 -0.0060232 0
-0.00208664 -0.00585702 0
0.000681238 0.00557741 0
0.000496771 0.00412515 0
-0.0015922 0.00666259 0
-0.00348984 0.00811683 0
-0.00249265 0.00388425 0
-0.000889487 0.00156623 0
-0.000220236 0.00153984 0
0 0 0
-1.45032e-05 0.00013549 0
-0.000156583 5.95098e-05 0
-0.000722869 0.000238881 0
-0.000632358 -2.20974e-05 0
-6.36521e-05 0.000240342 0
-0.000842734 0.00195471 0
-0.00119588 0.00176473 0
6.0718e-05 0.00063429 0
9.40495e-05 2.91765e-05 0
-0.000496967 0.000298492 0
0 0 0
6.25284e-05 0.000505664 0
-0.00360231 -0.0029529 0
-0.0066437 -0.00886094 0
-0.00378487 -0.00555509 0
-7.38858e-05 -0.00679768 0
0.00117478 -0.00795739 0
0.000938228 0.00317504 0
-0.00201369 0.00973233 0
-0.00534687 0.00866197 0
-0.00328333 0.00507819 0
-0.0018063 0.00389432 0
-0.00246196 0.00184709 0
-0.00123796 -0.000478922 0
0 0 0
-0.000468453 0.000945464 0
-0.000939384 0.000396956 0
-0.00121785 0.000440517 0
-0.00203772 4.64649e-05 0
-0.00233329 0.000323839 0
-0.000910634 0.00102915 0
0.000381983 0.00108087 0
6.51241e-05 0.000607541 0
2.19424e-05 0.000196555 0
3.64463e-05 -1.63882e-05 0
0 0 0
0.000195522 0.000722505 0
-0.00041581 -8.17179e-05 0
-0.00345888 -0.00412684 0
-0.00667268 -0.00954066 0
-0.00359568 -0.0128077 0
0.000592345 -0.00496598 0
-0.00183957 0.00448716 0
-0.00412645 0.0131401 0
-0.00300812 0.00807358 0
-0.00446474 0.0051792 0
-0.00886491 0.00482712 0
-0.00868568 0.000903133 0
-0.00336985 -0.00438667 0
0 0 0
-0.00194216 0.00257043 0
-0.00402485 0.00128265 0
-0.00259702 -0.000464728 0
-0.00136647 0.000617588 0
-0.00178109 0.000474449 0
-0.00160549 -0.000654444 0
-0.000540792 -0.000270488 0
-5.69269e-05 0.0015329 0
0 0 0
0 0 0
0 0 0
7.44259e-05 0.000118856 0
0.000552312 0.00028185 0
0.000537194 -0.000269825 0
-0.00645506 -0.00628003 0
-0.0106041 -0.0172304 0
-0.00340688 -0.010411 0
-0.00236717 0.0107992 0
-0.00225657 0.00800224 0
-0.00154432 0.00924478 0
-0.00777435 0.0131484 0
-0.00820615 0.00325423 0
-0.00523159 -0.00149309 0
-0.00762203 -0.00595794 0
-0.00766895 -0.0016151 0
-0.00285542 0.00124125 0
-0.00208671 0.00317839 0
-0.0045628 -0.00145559 0
-0.00356405 -0.00041511 0
-0.00104085 -0.00103836 0
-0.000537344 0.000562592 0
-0.00170865 -0.000915631 0
-0.000816619 -2.86177e-06 0
0 0 0
0 0 0
0 0 0
0 0 0
0 0 0
0 0 0
0 0 0
-0.00436301 -0.0111213 0
-0.00418329 -0.0209889 0
0.00338516 0.0095298 0
-0.00201623 0.0126659 0
-0.011216 0.0135528 0
-0.0102793 0.0128478 0
-0.00437942 0.00128035 0
-0.00267731 -0.00137536 0
-0.00720936 -0.00220171 0
-0.00976979 -0.00423692 0
-0.00706192 -0.00172653 0
-0.00387101 0.00279269 0
-0.00301378 -0.000960681 0
-0.0019201 -0.00202571 0
-0.000614472 -0.00376779 0
0.0020845 0.00055176 0
0.00113203 0.000875395 0
-7.17884e-05 -0.000934166 0
0 0 0
0 0 0
0 0 0
0 0 0
-0.00441981 0.00327569 0
-0.00974079 6.3307e-05 0
-0.00730968 -0.00215662 0
0.00408087 -0.0171632 0
0.00760734 -0.018203 0
-0.00252855 0.00769619 0
-0.0135131 0.0289792 0
-0.0108245 0.0100881 0
-0.00043263 0.00306823 0
0 0 0
-0.00240909 0.000916703 0
-0.00193426 0.000856185 0
-0.00338566 -0.00325314 0
-0.00589966 -0.00295727 0
-0.00281937 -0.00316174 0
0 0 0
0.000769077 -0.0043399 0
-0.00219908 -0.00227072 0
-0.001482 -0.00330303 0
0.0020426 0.00102832 0
4.34342e-05 0.00195926 0
-0.00440386 -0.000119522 0
-0.00126347 -0.00149081 0
-0.000437417 0.00155015 0
-0.00625101 0.00490687 0
-0.00731722 0.00546836 0
-0.00352771 0.00100721 0
-0.00454852 -0.00463274 0
-0.00670079 -0.0309005 0
-0.00147477 -0.00951968 0
-0.00733632 0.0214487 0
-0.00688237 0.0232881 0
0.00464291 0.00125925 0
0.0148147 -0.000969607 0
0.0124267 0.00362446 0
0.00990758 0.00106594 0
0.0131242 -0.00148632 0
0.0141199 -8.82731e-05 0
0.00868019 -0.000844934 0
0.00489156 -0.00517177 0
0.0113075 -0.00288798 0
0.00719203 0.000647193 0
0 0 0
0.00309748 -0.00686449 0
0.00491968 0.000144728 0
0.0030656 0.007439 0
0 0 0
0.00476909 -0.00589741 0
0.00554114 0.00221168 0
0.00402926 0.00947496 0
0.00608507 -0.000268766 0
0.0120626 0.000944281 0
0.00780277 0.00018638 0
-0.00744539 -0.0217907 0
-0.00537032 -0.0221688 0
0.0232796 0.0147203 0
0.0514806 0.00295591 0
0.0536879 -0.00243275 0
0.0469463 -0.00282669 0
0.0505613 0.0041577 0
0.0532427 -0.00165318 0
0.05222 -0.000363198 0
0.0484641 -0.000286835 0
0.0533683 0.00229362 0
0.0505801 -0.00249503 0
0.0439698 -0.00378881 0
0.0436303 0.00533041 0
0.0499226 0.000902242 0
0.0436335 -0.00372273 0
0.0386534 -0.000336691 0
0.044138 0.00449995 0
0.0503028 0.000712855 0
0.0436551 -0.00405166 0
0.0408187 0.00211834 0
0.048549 0.0035303 0
0.0527979 -0.00212938 0
0.0468091 -0.00138134 0
0.0523689 0.00400985 0
0.0511522 -0.00363811 0
0.027923 -0.0171035 0


