# vtk DataFile Version 4.0
SiwiRVisFile
ASCII
DATASET STRUCTURED_POINTS
DIMENSIONS 25 25 1
ORIGIN 0 0 0
SPACING 1 1 1
POINT_DATA 625

SCALARS flags double 1
LOOKUP_TABLE default
1
1
1
1
1
1
1
1
1
1
1
1
1
1
1
1
1
1
1
1
1
1
1
1
1
1
1
1
1
1
1
1
1
1
1
1
1
1
1
1
1
1
1
1
1
1
1
1
1
1
1
1
1
1
1
1
1
1
1
1
1
1
1
1
1
1
1
1
1
1
1
1
1
1
1
1
1
1
1
1
1
1
1
1
1
1
1
1
1
1
1
1
1
1
1
1
1
1
1
1
1
1
1
1
1
1
1
1
1
1
1
1
1
1
1
1
1
1
1
1
1
1
1
1
1
1
1
1
1
1
1
1
1
1
1
1
1
1
1
1
1
1
1
1
1
1
1
1
1
1
1
1
1
1
1
1
1
1
1
1
1
1
1
1
1
1
1
1
1
1
1
1
1
1
1
1
1
1
1
1
1
1
1
1
1
1
1
1
1
1
1
1
1
1
1
1
1
1
1
1
1
1
1
1
1
1
1
1
1
1
1
1
1
1
1
1
1
1
1
1
1
1
1
1
1
1
1
1
1
1
1
1
1
1
1
1
1
1
1
1
1
1
1
1
1
1
1
1
1
1
1
1
1
1
1
1
1
1
1
1
1
1
1
1
1
1
1
1
1
1
1
1
1
1
1
1
1
1
1
1
1
1
1
1
1
1
1
1
1
1
1
1
1
1
1
1
1
1
1
1
1
1
1
1
1
1
1
1
1
1
1
1
1
1
1
1
1
1
1
1
1
1
1
1
1
1
1
1
1
1
1
1
1
1
1
1
1
1
1
1
1
1
1
1
1
1
1
1
1
1
1
1
1
1
1
1
1
1
1
1
1
1
1
1
1
1
1
1
1
1
1
1
1
1
1
1
1
1
1
1
1
1
1
1
1
1
1
1
1
1
1
1
1
1
1
1
1
1
1
1
1
1
1
1
1
1
1
1
1
1
1
1
1
1
1
1
1
1
1
1
1
1
1
1
1
1
1
1
1
1
1
1
1
1
1
1
1
1
1
1
1
1
1
1
1
1
1
1
1
1
1
1
1
1
1
1
1
1
1
1
1
1
1
1
1
1
1
1
1
1
1
1
1
1
1
1
1
1
1
1
1
1
1
1
1
1
1
1
1
1
1
1
1
1
1
1
1
1
1
1
1
1
1
1
1
1
1
1
1
1
1
1
1
1
1
1
1
1
1
1
1
1
1
1
1
1
1
1
1
1
1
1
1
1
1
1
1
1
1
1
1
1
1
1
1
1
1
1
1
1
1
1
1
1
1
1
1
1
1
1
1
1
1
1
1
1
1
1
1
1
1
1
1
1
1
1
1
1
1
1
1
1
1
1
1
1
1
1
1
1
1
1
1
1
1
1
1
1
1
1
1
1
1
1
1
1
1
1
1
1
1
1
1
1
1
1
1
1
1
1
1
1
1
1
1

SCALARS density double 1
LOOKUP_TABLE default
0.999748
0.999777
0.999892
0.999771
0.999696
0.999925
0.99993
0.999653
0.9998
1.0001
0.999811
0.999635
1.00007
1.00007
0.999627
0.999855
1.00021
0.99982
0.99968
1.00018
1.00009
0.999652
0.99999
1.00026
0.999795
1.00006
0.999518
0.999691
1.00011
0.999798
0.999584
0.999915
1
0.999729
0.999775
0.999973
0.99991
0.999822
0.999867
0.999921
0.999954
0.999906
0.999829
0.999956
1.00006
0.99989
0.999812
1.00008
1.00009
0.999773
0.999734
0.999929
0.99978
0.999737
0.999909
0.999819
0.999706
0.99995
0.999937
0.999657
0.999888
1.0001
0.99973
0.999739
1.00015
0.999921
0.999622
1.00007
1.00017
0.999643
0.999859
1.00033
0.999861
0.999613
1.00022
0.999601
1.00012
0.999909
0.999487
0.999811
1.0001
0.999772
0.999614
0.999963
1.00002
0.999734
0.999772
1.00001
0.999963
0.999777
0.99985
1.00002
0.99996
0.999824
0.999908
1.00004
0.99999
0.999879
0.999928
1.00004
1.00003
0.999479
0.999728
1.00002
0.999773
0.999704
0.999981
0.999816
0.999699
0.999998
0.999903
0.999697
0.999992
1.00002
0.999687
0.999902
1.00014
0.999734
0.999737
1.0003
0.999984
0.999534
1.00014
1.00035
0.999596
0.999798
0.999394
0.99973
1.00012
0.999848
0.999558
0.999859
1.00009
0.999728
0.999622
1.00001
1.00006
0.999734
0.999774
1.00008
0.999936
0.999692
0.999935
1.00009
0.999863
0.99987
1.00008
0.999976
0.999905
1.00003
0.999231
1.00021
0.999751
1
0.999896
1.00008
0.999539
0.999665
1.00004
0.999818
0.999797
1.00001
0.999848
0.999811
1.00006
0.99988
0.999695
1
1
1
0.999976
1.00045
0.999753
0.999559
1.00044
0.99968
0.999729
0.999435
1
0.99975
0.999931
0.999702
0.999464
0.999887
1.00015
0.999802
0.999698
1.00009
1.00008
0.999639
0.999813
1.00016
1
1
1
1.00007
0.999702
1.00013
1.0002
0.999729
0.999918
0.99854
0.999306
1
0.999512
0.999089
1.00005
0.999971
1
0.999924
1.00005
0.999863
0.99987
0.999936
0.999844
1
0.999983
1
1
1
0.999967
0.9995
1.0003
1.0005
0.999524
0.998926
0.999577
0.999615
1
0.999694
0.999599
0.999408
0.99962
0.999722
0.999715
0.999974
1.00013
0.999762
0.999752
1.00022
0.999948
0.999533
1.00022
1.0004
0.999557
1.00002
1.00065
0.999718
0.999617
1.0006
0.998861
1.00032
0.999295
0.998103
0.999527
1.00028
0.999098
0.999135
1.0002
0.99996
0.999595
0.999866
1.00011
0.999993
0.999907
0.999824
0.999943
1.00023
1.00004
0.999606
1.00022
1.00051
0.999752
0.999577
1.0005
1.00003
0.998527
0.998868
1.00005
0.999098
0.998846
0.999787
1
0.999664
0.99966
1
0.999857
1.00002
1.00007
0.999658
1
1.00044
0.999595
0.999661
1.0008
0.999995
0.999148
1.00064
1.00068
0.999018
0.999427
0.998127
0.999274
1.00029
0.99897
0.998312
0.999594
1.00015
0.998714
1
1.00025
1.00007
0.999728
0.999913
1.00011
1.00004
0.999893
0.999831
1.0001
1.00026
0.999916
0.999761
1.00019
1.00045
0.999808
0.998114
1.00067
0.999582
0.997683
0.999581
1.0004
0.998443
0.99883
0.999826
0.999984
0.999687
0.999991
0.999993
0.999869
1.0002
0.999881
0.999512
1.00055
1.00037
0.998942
1.00023
1.00131
0.999082
0.999063
1.00157
0.999367
0.999907
0.998923
0.998565
0.999445
0.999715
0.998865
0.998822
0.999892
1.00003
0.999566
0.999819
1.00027
0.999961
0.999681
1.00003
1.00017
0.999955
0.999806
1.00011
1.00004
1.00001
1.00028
0.999828
0.999714
1.00054
0.996907
0.998791
1.00135
0.998478
0.997422
1.00053
1
0.999419
0.999342
1.00021
1
0.999756
1.0001
0.99987
0.999978
1.00033
0.999376
0.99964
1.00145
0.999641
0.99834
1.00138
1.0014
0.997916
0.998201
0.999078
0.999598
0.998903
0.999023
0.99915
0.998896
1
0.99971
0.99984
1.00008
1
0.999638
1.00005
1.00031
0.99967
0.999675
1.00027
1.00018
0.999459
1.00028
1.00066
0.99915
0.99998
1.00148
0.997597
1.00213
0.999309
0.996222
0.999969
1.00125
0.997239
1
1.00049
1.00015
0.999112
1.00013
1.00045
0.999614
0.999802
1.00022
0.999705
1.00012
1
0.998125
1.00054
1.00227
0.998458
0.998138
1.00258
1.00092
0.997525
0.998108
1.00058
0.998749
0.997924
0.999934
1
0.999789
0.999981
0.999849
0.999927
1.00015
0.999895
0.999559
1.00023
1.00017
0.999567
1
1.00141
0.999264
0.998406
1.00211
1.00104
0.996933
1.00001
0.995203
0.99887
1.002
0.99813
0.996952
1.0006
1
0.999154
0.999487
1.0008
0.999662
0.99927
1.00065
1.0003
0.999041
1
1
1
1.00157
0.999696
0.997649
1.0017
1.00236
0.997403
0.995099
1.00222
1.00005
0.995174
0.999366
1.00118
0.997933
0.998539
1.00056
1.00003
0.999857
0.999928
0.99991
0.999668
1.00044
1.00009
1
1
1
1
1
1
1
0.998721
1.00669
0.99903
1.0023
0.99766
0.995704
0.999641
1.00056
0.998
0.999134
1.00075
0.999807
0.998941
1.0003
1.00094
0.99892
0.999346
1.00146
1
1
1
1
1.00492
1.01076
1.0016
1.00145
1.00792
1.00238
0.989855
0.996732
1.00469
1
0.996459
1.00063
1.00055
0.998469
1.00023
1
0.999851
0.999859
1.00093
0.999094
0.998739
1.00232
0.997735
0.999207
1.00983
1.00586
0.995219
1.00581
1.01461
0.998522
0.993642
0.995904
1.00025
0.999238
0.995758
0.99801
0.999685
0.999076
1.00008
1.00212
1.00125
1.00693
1
1.00082
1.00122
0.998357
1
0.999526
1.00341
1.0062
1.0017
1.00082
1.00793
1.00707
1.00392
0.993931
1.00951
0.998659
0.99194
0.999703
1.00069
0.997079
0.998476
1.00132
1.00128
1.00309
1.00831
1.00221
0.994972
0.999818
1.00312
1.00095
1.00641
1.00571
0.995312
1.00261
1.01486
1.00049
0.992932
1.02412

VECTORS velocity double
-5.96868e-07 4.20191e-06 0
-0.00014375 8.30159e-05 0
-0.000265274 5.60125e-06 0
-0.000262151 -1.91526e-05 0
-0.000250705 2.24045e-05 0
-0.000443755 9.76288e-05 0
-0.000553745 -2.047e-05 0
-0.00049569 -2.71403e-05 0
-0.000502586 4.32361e-05 0
-0.000606714 1.30884e-05 0
-0.000550918 -4.79538e-05 0
-0.000472694 -8.84545e-06 0
-0.000438386 -6.10335e-06 0
-0.000434273 -1.26062e-05 0
-0.000403555 1.73829e-06 0
-0.000391161 -1.04984e-05 0
-0.000350995 -9.00685e-06 0
-0.000381116 2.40315e-05 0
-0.000426976 3.47219e-05 0
-0.000362838 -6.33265e-05 0
-0.000226006 7.05246e-06 0
-0.00024534 4.47478e-05 0
-0.000207303 -1.84035e-06 0
-9.46875e-05 -3.00563e-05 0
2.28985e-06 2.8697e-05 0
-8.83675e-05 0.000134778 0
-0.000404095 0.000353611 0
-0.000616491 9.01382e-05 0
-0.000779775 4.76504e-05 0
-0.00113549 0.000277722 0
-0.00139299 0.000247825 0
-0.00134533 -1.32872e-05 0
-0.00150321 6.51851e-05 0
-0.00174853 0.000148709 0
-0.00167926 -6.2879e-05 0
-0.00143554 -0.000160152 0
-0.00146185 -1.24477e-05 0
-0.00140963 -0.000104007 0
-0.00111279 -0.000147161 0
-0.00100372 3.01714e-05 0
-0.00120877 3.01277e-05 0
-0.00119627 -8.46664e-05 0
-0.00102393 7.92494e-07 0
-0.0010285 5.90259e-05 0
-0.00112079 -0.000192078 0
-0.000876601 -0.000234351 0
-0.000530373 -0.000116469 0
-0.000388833 -0.000128971 0
-0.000296524 -0.000273577 0
-7.36765e-05 -0.000130718 0
-0.000124742 0.0004452 0
-0.00032566 0.000532683 0
-0.000726752 0.000515382 0
-0.00143375 0.000471502 0
-0.00170363 0.000509439 0
-0.00168429 0.000286785 0
-0.00199735 0.000268711 0
-0.00247287 0.000311328 0
-0.0024219 7.84582e-05 0
-0.00231149 -0.00014136 0
-0.00236022 -0.000237641 0
-0.00211342 -0.000236138 0
-0.00175318 -0.000291276 0
-0.00172263 -0.000264464 0
-0.00161542 -4.49792e-05 0
-0.00139315 5.98697e-05 0
-0.00146707 -1.26177e-05 0
-0.00166101 -5.15293e-05 0
-0.00143587 -6.86577e-05 0
-0.00124456 -0.000149216 0
-0.00126521 -0.000432063 0
-0.000977919 -0.000506085 0
-0.000434828 -0.000282665 0
-0.000215877 -0.000291054 0
-8.25617e-05 -0.00029821 0
6.12246e-05 0.000552692 0
-0.000451706 0.00104231 0
-0.0014162 0.00125458 0
-0.00184368 0.000860973 0
-0.0016769 0.000460466 0
-0.00190307 0.000570309 0
-0.0024827 0.000740927 0
-0.00281119 0.000556933 0
-0.00284938 2.56917e-05 0
-0.00295121 -0.000162926 0
-0.00288867 -0.000376942 0
-0.00243172 -0.000630972 0
-0.00200528 -0.000520085 0
-0.001904 -0.000366592 0
-0.00170953 -0.000249852 0
-0.00145243 -4.31062e-05 0
-0.0015013 0.000147497 0
-0.00178259 -1.48067e-05 0
-0.00171359 -0.000299324 0
-0.00133548 -0.00039712 0
-0.00113783 -0.000547079 0
-0.0011071 -0.000894506 0
-0.000686694 -0.000893612 0
-0.000152132 -0.00062884 0
6.13138e-05 -0.000417897 0
-0.000159442 0.000694846 0
-0.00117354 0.00236163 0
-0.00176828 0.0015811 0
-0.00132527 0.000637975 0
-0.00128465 0.000555139 0
-0.00203037 0.00128584 0
-0.00254764 0.00108133 0
-0.00283171 0.000794934 0
-0.00332724 0.000335897 0
-0.00336626 -0.00034465 0
-0.00284682 -0.000785162 0
-0.00257931 -0.000941174 0
-0.00231342 -0.000895331 0
-0.00176495 -0.000689448 0
-0.00146012 -0.000390529 0
-0.00150644 -0.000124237 0
-0.00126653 0.000134073 0
-0.000992607 9.58038e-05 0
-0.00125442 -0.000199051 0
-0.00148731 -0.000754408 0
-0.00116111 -0.000670056 0
-0.000904981 -0.000866365 0
-0.000777778 -0.00124725 0
-0.000433952 -0.00114146 0
-4.06094e-05 -0.000291034 0
-0.000390291 0.00151193 0
-0.000967795 0.00297908 0
-0.00100667 0.00146481 0
-0.000768045 0.00018103 0
-0.000682591 0.00093242 0
-0.00112146 0.00198278 0
-0.00207395 0.00190797 0
-0.00324965 0.00132921 0
-0.00371976 0.000492535 0
-0.00330838 -0.000671 0
-0.00269888 -0.00122852 0
-0.00245005 -0.00123832 0
-0.00217325 -0.00130045 0
-0.00170081 -0.00107957 0
-0.00119431 -0.000717251 0
-0.000816651 -0.000375088 0
-0.000579152 -6.56744e-05 0
-0.000464818 4.29623e-05 0
-0.000443797 -5.96809e-05 0
-0.000756171 -0.000503952 0
-0.00102106 -0.000908306 0
-0.000737527 -0.00138915 0
-0.000436897 -0.00136327 0
-0.000531201 -0.00140946 0
-0.000249136 -0.000819691 0
-0.00010664 0.00226005 0
-0.000172964 0.00260727 0
-4.80494e-05 0.00153499 0
0 0 0
-0.000189568 0.00133612 0
-0.000868917 0.0025764 0
-0.00209817 0.00341356 0
-0.00305432 0.00213533 0
-0.00284746 0.000138056 0
-0.00266752 -0.00101909 0
-0.00272046 -0.00155976 0
-0.00226062 -0.00167868 0
-0.00171033 -0.00160561 0
-0.00160811 -0.00145273 0
-0.00128179 -0.00127027 0
-0.00065892 -0.000756147 0
-0.000152975 -0.000388516 0
0 0 0
0 0 0
0 0 0
-0.000480382 -0.00058674 0
-0.000786506 -0.00173644 0
-0.000295304 -0.0014732 0
-5.503e-05 -0.00111978 0
-2.3117e-05 -0.00112034 0
0.000407198 0.00182423 0
0.000224431 0.0031161 0
-0.000148547 0.00146256 0
0 0 0
-0.000102607 0.00168001 0
-0.00103929 0.0038519 0
-0.00180684 0.00400892 0
-0.00171817 0.00235505 0
-0.00147582 -6.13886e-05 0
-0.00146607 -0.0011094 0
-0.00165014 -0.00155179 0
-0.00181059 -0.00185215 0
-0.00190838 -0.00175439 0
-0.00177821 -0.00185668 0
-0.00124723 -0.00168833 0
-0.00062231 -0.00131648 0
-0.000120583 -0.000832012 0
0 0 0
0 0 0
0 0 0
-4.59938e-05 -0.000405645 0
-0.000428761 -0.00131073 0
-0.000481848 -0.00226208 0
0.000123404 -0.00175666 0
0.000279539 -0.000875735 0
-0.000224428 0.00152592 0
-0.000346713 0.00375489 0
-7.89519e-05 0.00111836 0
0 0 0
-0.000114074 0.00200186 0
-0.000675564 0.00512666 0
-0.000751534 0.0036131 0
-0.000229979 0.00171514 0
0 0 0
-0.000443264 -0.000634355 0
-0.00123432 -0.00104944 0
-0.00197914 -0.00150939 0
-0.00215323 -0.0018575 0
-0.00156629 -0.00226183 0
-0.00123522 -0.0019736 0
-0.0013708 -0.00192819 0
-0.000656874 -0.00137113 0
0 0 0
0 0 0
0 0 0
8.59179e-05 -0.000232839 0
0.000180794 -0.000909368 0
-8.45528e-05 -0.002163 0
-0.000456145 -0.00205954 0
-0.000210232 -0.000610664 0
-0.000281982 0.0022907 0
-5.77898e-05 0.00292122 0
0.000253209 0.00118984 0
0 0 0
-0.000827495 0.00285603 0
-0.00175826 0.00489323 0
-0.0014959 0.00367667 0
-0.00109001 0.00128583 0
-0.000990867 9.91955e-05 0
-0.00100561 -9.56626e-05 0
-0.0014948 -5.18476e-05 0
-0.00212447 -0.00116975 0
-0.00212089 -0.00208515 0
-0.00224868 -0.00233514 0
-0.0022995 -0.00222617 0
-0.00197346 -0.00226446 0
-0.00200642 -0.00149958 0
-0.00186274 -0.00079683 0
-0.000989254 -0.000272026 0
-0.000764678 -9.11735e-05 0
-0.000573544 -0.000380346 0
9.87296e-05 -0.00189742 0
0.000357316 -0.00144094 0
-0.000349798 -0.00152394 0
-0.000339243 -0.00160024 0
0.000305501 0.00226853 0
0.000629977 0.00229536 0
0.000297648 0.00174345 0
-0.00132931 0.00130062 0
-0.00213236 0.00377478 0
-0.00218871 0.0048531 0
-0.00262269 0.0038704 0
-0.00215752 0.000644786 0
-0.00114389 -0.000388508 0
-0.0015161 0.000375549 0
-0.00222002 0.000292674 0
-0.00167686 -0.00129287 0
-0.00154713 -0.00185348 0
-0.00265566 -0.00181876 0
-0.0032655 -0.0022085 0
-0.00304014 -0.00223422 0
-0.00324598 -0.00114481 0
-0.00373926 -0.00137195 0
-0.00292316 -0.000865328 0
-0.00167918 -0.000683772 0
-0.00106477 -0.000541823 0
-0.00115664 -0.00219137 0
-0.000504478 -0.00163453 0
0.00033197 -0.00125368 0
0.000329643 -0.00150241 0
0.000443096 0.00115194 0
0.000128442 0.00354986 0
-0.000909145 0.00248644 0
-0.00144046 0.00220389 0
-0.00259968 0.00454796 0
-0.0036903 0.00559523 0
-0.00182683 0.00207749 0
0 0 0
-0.000918376 0.000130337 0
-0.000932385 0.000381896 0
0 0 0
-0.00105402 -0.000727106 0
-0.00255646 -0.000956292 0
-0.00276032 -0.0014419 0
-0.0028596 -0.00171201 0
-0.00402811 -0.00172303 0
-0.00425034 -0.00156297 0
-0.00362345 -0.00116599 0
-0.00385814 -0.00136102 0
-0.00366613 -0.00225357 0
-0.00194483 -0.00148568 0
-0.00148991 -0.00173894 0
-0.00136154 -0.00301219 0
-0.000331844 -0.00275784 0
0.00032624 -0.000715787 0
-0.000642299 0.00140647 0
-0.000806547 0.00387079 0
-0.000642373 0.00338725 0
-0.00249411 0.00347977 0
-0.0037472 0.00510343 0
-0.00209573 0.0043518 0
-0.000757833 0.000377785 0
-0.00185154 0.000360838 0
-0.00131534 -0.000195028 0
0 0 0
-0.000481179 0.000465215 0
-0.00163768 0.000585539 0
-0.00239313 -0.000231428 0
-0.00258608 -0.0012497 0
-0.0031382 -0.0009495 0
-0.00430329 -0.000948271 0
-0.00451395 -0.00174841 0
-0.00398624 -0.00126028 0
-0.00380081 -0.00145253 0
-0.00416939 -0.00248415 0
-0.0032313 -0.00274093 0
-0.00159493 -0.00259447 0
-0.00108015 -0.00259801 0
-0.00193339 -0.00311628 0
-0.000918497 -0.00148797 0
-0.000252829 0.0027838 0
-0.000350184 0.00251619 0
-0.000891975 0.00452726 0
-0.00287814 0.00620898 0
-0.00340753 0.00451948 0
-0.00312947 0.00277657 0
-0.00474202 0.00210814 0
-0.00486151 -1.18229e-05 0
-0.00323535 -0.00163346 0
-0.00302481 -0.000429551 0
-0.00314997 0.00131986 0
-0.00271891 0.00098919 0
-0.00200625 -0.000203952 0
-0.00287947 -0.000387219 0
-0.00369084 -0.000402709 0
-0.00313834 -0.000894696 0
-0.00362993 -0.000838237 0
-0.00518811 -0.00173877 0
-0.00417585 -0.00235491 0
-0.00336939 -0.00190764 0
-0.00401562 -0.00351051 0
-0.00348544 -0.00515228 0
-0.00111992 -0.0025896 0
-0.000598699 -0.00254703 0
-0.000177045 -0.00344356 0
0.000508781 0.00240436 0
-0.000571323 0.00402616 0
-0.00250774 0.00598451 0
-0.0024577 0.00630804 0
-0.00225258 0.00491454 0
-0.00368653 0.00415739 0
-0.00428193 0.00287873 0
-0.00470592 -0.00041341 0
-0.00481426 -0.00222348 0
-0.00416407 -0.000998689 0
-0.00365324 0.000959992 0
-0.00290152 1.18103e-05 0
-0.00234627 -0.000505178 0
-0.00242637 0.000160975 0
-0.00249803 -0.000215127 0
-0.00273966 -0.000754284 0
-0.00348338 0.00028542 0
-0.00455613 -0.0014547 0
-0.00447074 -0.00240726 0
-0.00362415 -0.00307771 0
-0.00273963 -0.00304795 0
-0.00393473 -0.00499988 0
-0.00284372 -0.00521376 0
-0.000285343 -0.00414273 0
0.00090055 -0.00251432 0
-4.07868e-05 0.00168166 0
-0.00138853 0.00713157 0
-0.00221277 0.00638367 0
-0.00164606 0.00475431 0
-0.00219433 0.00637204 0
-0.00335166 0.00587098 0
-0.00177473 0.000887959 0
0 0 0
-0.00174081 -0.00123545 0
-0.0028468 -0.00114421 0
-0.00132494 -0.000330673 0
-0.000929298 -0.000350742 0
-0.00158964 4.02084e-05 0
-0.00121223 -0.000288044 0
-0.0010139 -6.28677e-06 0
-0.00281181 0.000585179 0
-0.00272182 1.75709e-05 0
-0.00148829 -0.00109482 0
-0.00356209 -0.000799138 0
-0.0059495 -0.00503849 0
-0.00360686 -0.00355022 0
-0.00284758 -0.00376442 0
-0.00331507 -0.00682946 0
-0.00299443 -0.00720193 0
-0.000427673 -0.00219678 0
-0.00158183 0.00405444 0
-0.00171503 0.0058809 0
-0.000100169 0.00612735 0
-0.0019234 0.0068549 0
-0.00264376 0.00585137 0
-0.000216652 0.00363205 0
0.000648519 0.000476238 0
0 0 0
0.00026764 -0.000363227 0
7.64575e-05 -0.00101646 0
-0.000180056 -0.00121315 0
0 0 0
-0.000161987 0.00020154 0
-0.000781975 -9.72736e-05 0
-0.00122332 0.000468608 0
-0.00118227 0.00105283 0
-0.000749029 -0.000719745 0
-0.00114195 -8.02442e-05 0
-0.00144998 0.00031566 0
-0.00336106 -0.00278539 0
-0.00474926 -0.00451866 0
-0.00369975 -0.00653744 0
-0.00176981 -0.00482033 0
-0.00396771 -0.00667518 0
-0.00200956 -0.00612158 0
0.000732301 0.00540923 0
0.000591471 0.0043552 0
-0.00181969 0.00755487 0
-0.00404903 0.0091047 0
-0.00297627 0.00419135 0
-0.00105592 0.00127073 0
-0.000238032 0.00125767 0
0 0 0
-0.000230189 -0.000408924 0
-0.000445866 -0.000913371 0
-0.00101141 -0.00057573 0
-0.000729706 -0.000284691 0
0.000251963 -0.000223994 0
-0.000279176 0.00103109 0
-0.000543962 0.000838364 0
0.000454171 -0.000149231 0
0.000192518 -0.000424706 0
-0.000680535 0.000299244 0
0 0 0
-0.000353268 0.00031444 0
-0.00337269 -0.00288398 0
-0.00669601 -0.00876682 0
-0.00340754 -0.00573815 0
-0.000334745 -0.00707801 0
0.00122744 -0.00803902 0
0.000873087 0.00293086 0
-0.00224894 0.00998681 0
-0.00594875 0.00986823 0
-0.00383234 0.00603596 0
-0.00212427 0.00381412 0
-0.00263557 0.00128324 0
-0.00128466 -0.00111204 0
0 0 0
-0.000512585 0.000549316 0
-0.000912868 -0.00102478 0
-0.00104093 -0.000395182 0
-0.00165828 -0.000686675 0
-0.00184394 -0.000362825 0
-0.000396344 5.09204e-06 0
0.000854941 0.000360319 0
0.000321065 0.000305692 0
5.82692e-05 0.000108584 0
2.09451e-06 -3.12953e-05 0
0 0 0
-0.000146427 0.000620795 0
6.95576e-05 -0.000160705 0
-0.00339481 -0.0041392 0
-0.00603776 -0.00969897 0
-0.0035408 -0.0132047 0
0.000915285 -0.00534413 0
-0.00197175 0.00447951 0
-0.00471403 0.0138238 0
-0.00387282 0.00923279 0
-0.00502505 0.00577438 0
-0.00921 0.00471363 0
-0.009109 0.000164833 0
-0.0036112 -0.00499711 0
0 0 0
-0.00153198 0.0018406 0
-0.00307935 -3.16579e-05 0
-0.00183464 -0.00141798 0
-0.000793789 -0.000109737 0
-0.00121464 -0.000137903 0
-0.00119163 -0.00138386 0
-0.000386313 -0.000948464 0
-5.60728e-06 0.00146133 0
0 0 0
0 0 0
0 0 0
-0.000293819 6.34875e-05 0
0.000921686 0.000197844 0
0.000183696 -0.000241965 0
-0.00588431 -0.00592146 0
-0.0102977 -0.0166693 0
-0.00345722 -0.00955316 0
-0.00254125 0.0111566 0
-0.00233731 0.00892287 0
-0.00141798 0.0102917 0
-0.00793155 0.0137251 0
-0.00841293 0.0031387 0
-0.00525753 -0.00242662 0
-0.00830746 -0.00620362 0
-0.00866315 -0.00247499 0
-0.00247783 -0.000617914 0
-0.00111128 0.00183615 0
-0.00375592 -0.00230208 0
-0.00322767 -0.000804011 0
-0.000713433 -0.00180904 0
-0.000264712 0.000117195 0
-0.00166904 -0.00113467 0
-0.00104659 7.4389e-05 0
0 0 0
0 0 0
0 0 0
0 0 0
0 0 0
0 0 0
0 0 0
-0.00440149 -0.0109858 0
-0.00404872 -0.0210463 0
0.00364873 0.00956216 0
-0.000996935 0.0132694 0
-0.0107452 0.0149934 0
-0.0104011 0.0138302 0
-0.00509545 0.000851555 0
-0.00368835 -0.00164359 0
-0.00784746 -0.00207566 0
-0.0102449 -0.00517578 0
-0.00710791 -0.0041287 0
-0.00398724 0.00125372 0
-0.00252205 -0.00124706 0
-0.00195747 -0.00219556 0
-0.000254249 -0.00441037 0
0.00187684 0.000150257 0
0.00129208 0.000899035 0
-9.07231e-05 -0.00134314 0
0 0 0
0 0 0
0 0 0
0 0 0
-0.00463779 0.00337465 0
-0.0106439 0.00023044 0
-0.00842779 -0.00179847 0
0.00354025 -0.016511 0
0.00694909 -0.0173353 0
-0.00267828 0.007702 0
-0.0133531 0.0293889 0
-0.0103025 0.012091 0
0.000170617 0.00541145 0
0 0 0
-0.00169737 0.000389327 0
-0.00123538 0.000332426 0
-0.00274105 -0.00406335 0
-0.00558716 -0.00549852 0
-0.002696 -0.00507508 0
0 0 0
0.000285251 -0.00458068 0
-0.00166665 -0.00262613 0
-0.00209051 -0.00395806 0
0.00199165 0.00100194 0
-0.000403771 0.0025859 0
-0.00432396 -6.05048e-05 0
-0.00187267 -0.00204827 0
-0.000227052 0.00126053 0
-0.00690135 0.00552465 0
-0.00820363 0.00599772 0
-0.00411187 0.00185845 0
-0.00579464 -0.00460671 0
-0.00717101 -0.0314057 0
-0.00209778 -0.0101956 0
-0.00629982 0.0211293 0
-0.00710051 0.0230508 0
0.00593325 0.00237547 0
0.016144 -1.53428e-05 0
0.015653 0.00402166 0
0.0120415 -0.00061227 0
0.0157531 -0.000982517 0
0.0167804 -0.00102624 0
0.0102384 -0.00161113 0
0.00571004 -0.00659398 0
0.010835 -0.00381681 0
0.00796343 0.000756637 0
0 0 0
0.00239137 -0.00670056 0
0.00473702 -0.00019423 0
0.00214281 0.00723599 0
0 0 0
0.00324759 -0.00569639 0
0.00550863 0.00275622 0
0.00338064 0.00922492 0
0.00637686 0.000464103 0
0.0118345 0.0010599 0
0.00734359 0.000410255 0
-0.00620235 -0.0222661 0
-0.00593603 -0.0223492 0
0.0234918 0.0152798 0
0.0515371 0.00363278 0
0.054149 -0.00191867 0
0.0489106 -0.00170673 0
0.0523595 0.00383857 0
0.0560097 -0.00135081 0
0.0525537 -0.00110083 0
0.0511714 7.58106e-05 0
0.0532331 0.00116727 0
0.0520598 -0.00199905 0
0.0435195 -0.00378566 0
0.043842 0.00383921 0
0.0495201 -0.000240905 0
0.0440614 -0.0035897 0
0.0385287 -0.000202921 0
0.0440124 0.0036646 0
0.0497675 -0.000207389 0
0.0438311 -0.00384621 0
0.0402735 0.00155898 0
0.0486973 0.00407112 0
0.0521795 -0.00198965 0
0.0479954 -0.000546142 0
0.0525238 0.00357257 0
0.052399 -0.00371406 0
0.0243307 -0.0158265 0


