# vtk DataFile Version 4.0
SiwiRVisFile
ASCII
DATASET STRUCTURED_POINTS
DIMENSIONS 50 50 1
ORIGIN 0 0 0
SPACING 1 1 1
POINT_DATA 2500


SCALARS flags double 1
LOOKUP_TABLE default
1
1
1
1
1
1
1
1
1
1
1
1
1
1
1
1
1
1
1
1
1
1
1
1
1
1
1
1
1
1
1
1
1
1
1
1
1
1
1
1
1
1
1
1
1
1
1
1
1
1
1
1
1
1
1
1
1
1
1
1
1
1
1
1
1
1
1
1
1
1
1
1
1
1
1
1
1
1
1
1
1
1
1
1
1
1
1
1
1
1
1
1
1
1
1
1
1
1
1
1
1
1
1
1
1
1
1
1
1
1
1
1
1
1
1
1
1
1
1
1
1
1
1
1
1
1
1
1
1
1
1
1
1
1
1
1
1
1
1
1
1
1
1
1
1
1
1
1
1
1
1
1
1
1
1
1
1
1
1
1
1
1
1
1
1
1
1
1
1
1
1
1
1
1
1
1
1
1
1
1
1
1
1
1
1
1
1
1
1
1
1
1
1
1
1
1
1
1
1
1
1
1
1
1
1
1
1
1
1
1
1
1
1
1
1
1
1
1
1
1
1
1
1
1
1
1
1
1
1
1
1
1
1
1
1
1
1
1
1
1
1
1
1
1
1
1
1
1
1
1
1
1
1
1
1
1
1
1
1
1
1
1
1
1
1
1
1
1
1
1
1
1
1
1
1
1
1
1
1
1
1
1
1
1
1
1
1
1
1
1
1
1
1
1
1
1
1
1
1
1
1
1
1
1
1
1
1
1
1
1
1
1
1
1
1
1
1
1
1
1
1
1
1
1
1
1
1
1
1
1
1
1
1
1
1
1
1
1
1
1
1
1
1
1
1
1
1
1
1
1
1
1
1
1
1
1
1
1
1
1
1
1
1
1
1
1
1
1
1
1
1
1
1
1
1
1
1
1
1
1
1
1
1
1
1
1
1
1
1
1
1
1
1
1
1
1
1
1
1
1
1
1
1
1
1
1
1
1
1
1
1
1
1
1
1
1
1
1
1
1
1
1
1
1
1
1
1
1
1
1
1
1
1
1
1
1
1
1
1
1
1
1
1
1
1
1
1
1
1
1
1
1
1
1
1
1
1
1
1
1
1
1
1
1
1
1
1
1
1
1
1
1
1
1
1
1
1
1
1
1
1
1
1
1
1
1
1
1
1
1
1
1
1
1
1
1
1
1
1
1
1
1
1
1
1
1
1
1
1
1
1
1
1
1
1
1
1
1
1
1
1
1
1
1
1
1
1
1
1
1
1
1
1
1
1
1
1
1
1
1
1
1
1
1
1
1
1
1
1
1
1
1
1
1
1
1
1
1
1
1
1
1
1
1
1
1
1
1
1
1
1
1
1
1
1
1
1
1
1
1
1
1
1
1
1
1
1
1
1
1
1
1
1
1
1
1
1
1
1
1
1
1
1
1
1
1
1
1
1
1
1
1
1
1
1
1
1
1
1
1
1
1
1
1
1
1
1
1
1
1
1
1
1
1
1
1
1
1
1
1
1
1
1
1
1
1
1
1
1
1
1
1
1
1
1
1
1
1
1
1
1
1
1
1
1
1
1
1
1
1
1
1
1
1
1
1
1
1
1
1
1
1
1
1
1
1
1
1
1
1
1
1
1
1
1
1
1
1
1
1
1
1
1
1
1
1
1
1
1
1
1
1
1
1
1
1
1
1
1
1
1
1
1
1
1
1
1
1
1
1
1
1
1
1
1
1
1
1
1
1
1
1
1
1
1
1
1
1
1
1
1
1
1
1
1
1
1
1
1
1
1
1
1
1
1
1
1
1
1
1
1
1
1
1
1
1
1
1
1
1
1
1
1
1
1
1
1
1
1
1
1
1
1
1
1
1
1
1
1
1
1
1
1
1
1
1
1
1
1
1
1
1
1
1
1
1
1
1
1
1
1
1
1
1
1
1
1
1
1
1
1
1
1
1
1
1
1
1
1
1
1
1
1
1
1
1
1
1
1
1
1
1
1
1
1
1
1
1
1
1
1
1
1
1
1
1
1
1
1
1
1
1
1
1
1
1
1
1
1
1
1
1
1
1
1
1
1
1
1
1
1
1
1
1
1
1
1
1
1
1
1
1
1
1
1
1
1
1
1
1
1
1
1
1
1
1
1
1
1
1
1
1
1
1
1
1
1
1
1
1
1
1
1
1
1
1
1
1
1
1
1
1
1
1
1
1
1
1
1
1
1
1
1
1
1
1
1
1
1
1
1
1
1
1
1
1
1
1
1
1
1
1
1
1
1
1
1
1
1
1
1
1
1
1
1
1
1
1
1
1
1
1
1
1
1
1
1
1
1
1
1
1
1
1
1
1
1
1
1
1
1
1
1
1
1
1
1
1
1
1
1
1
1
1
1
1
1
1
1
1
1
1
1
1
1
1
1
1
1
1
1
1
1
1
1
1
1
1
1
1
1
1
1
1
1
1
1
1
1
1
1
1
1
1
1
1
1
1
1
1
1
1
1
1
1
1
1
1
1
1
1
1
1
1
1
1
1
1
1
1
1
1
1
1
1
1
1
1
1
1
1
1
1
1
1
1
1
1
1
1
1
1
1
1
1
1
1
1
1
1
1
1
1
1
1
1
1
1
1
1
1
1
1
1
1
1
1
1
1
1
1
1
1
1
1
1
1
1
1
1
1
1
1
1
1
1
1
1
1
1
1
1
1
1
1
1
1
1
1
1
1
1
1
1
1
1
1
1
1
1
1
1
1
1
1
1
1
1
1
1
1
1
1
1
1
1
1
1
1
1
1
1
1
1
1
1
1
1
1
1
1
1
1
1
1
1
1
1
1
1
1
1
1
1
1
1
1
1
1
1
1
1
1
1
1
1
1
1
1
1
1
1
1
1
1
1
1
1
1
1
1
1
1
1
1
1
1
1
1
1
1
1
1
1
1
1
1
1
1
1
1
1
1
1
1
1
1
1
1
1
1
1
1
1
1
1
1
1
1
1
1
1
1
1
1
1
1
1
1
1
1
1
1
1
1
1
1
1
1
1
1
1
1
1
1
1
1
1
1
1
1
1
1
1
1
1
1
1
1
1
1
1
1
1
1
1
1
1
1
1
1
1
1
1
1
1
1
1
1
1
1
1
1
1
1
1
1
1
1
1
1
1
1
1
1
1
1
1
1
1
1
1
1
1
1
1
1
1
1
1
1
1
1
1
1
1
1
1
1
1
1
1
1
1
1
1
1
1
1
1
1
1
1
1
1
1
1
1
1
1
1
1
1
1
1
1
1
1
1
1
1
1
1
1
1
1
1
1
1
1
1
1
1
1
1
1
1
1
1
1
1
1
1
1
1
1
1
1
1
1
1
1
1
1
1
1
1
1
1
1
1
1
1
1
1
1
1
1
1
1
1
1
1
1
1
1
1
1
1
1
1
1
1
1
1
1
1
1
1
1
1
1
1
1
1
1
1
1
1
1
1
1
1
1
1
1
1
1
1
1
1
1
1
1
1
1
1
1
1
1
1
1
1
1
1
1
1
1
1
1
1
1
1
1
1
1
1
1
1
1
1
1
1
1
1
1
1
1
1
1
1
1
1
1
1
1
1
1
1
1
1
1
1
1
1
1
1
1
1
1
1
1
1
1
1
1
1
1
1
1
1
1
1
1
1
1
1
1
1
1
1
1
1
1
1
1
1
1
1
1
1
1
1
1
1
1
1
1
1
1
1
1
1
1
1
1
1
1
1
1
1
1
1
1
1
1
1
1
1
1
1
1
1
1
1
1
1
1
1
1
1
1
1
1
1
1
1
1
1
1
1
1
1
1
1
1
1
1
1
1
1
1
1
1
1
1
1
1
1
1
1
1
1
1
1
1
1
1
1
1
1
1
1
1
1
1
1
1
1
1
1
1
1
1
1
1
1
1
1
1
1
1
1
1
1
1
1
1
1
1
1
1
1
1
1
1
1
1
1
1
1
1
1
1
1
1
1
1
1
1
1
1
1
1
1
1
1
1
1
1
1
1
1
1
1
1
1
1
1
1
1
1
1
1
1
1
1
1
1
1
1
1
1
1
1
1
1
1
1
1
1
1
1
1
1
1
1
1
1
1
1
1
1
1
1
1
1
1
1
1
1
1
1
1
1
1
1
1
1
1
1
1
1
1
1
1
1
1
1
1
1
1
1
1
1
1
1
1
1
1
1
1
1
1
1
1
1
1
1
1
1
1
1
1
1
1
1
1
1
1
1
1
1
1
1
1
1
1
1
1
1
1
1
1
1
1
1
1
1
1
1
1
1
1
1
1
1
1
1
1
1
1
1
1
1
1
1
1
1
1
1
1
1
1
1
1
1
1
1
1
1
1
1
1
1
1
1
1
1
1
1
1
1
1
1
1
1
1
1
1
1
1
1
1
1
1
1
1
1
1
1
1
1
1
1
1
1
1
1
1
1
1
1
1
1
1
1
1
1
1
1
1
1
1
1
1
1
1
1
1
1
1
1
1
1
1
1
1
1
1
1
1
1
1
1
1
1
1
1
1
1
1
1
1
1
1
1
1
1
1
1
1
1
1
1
1
1
1
1
1
1
1
1
1
1
1
1
1
1
1
1
1
1
1
1
1
1
1
1
1
1
1
1
1
1
1
1
1
1
1
1
1
1
1
1
1
1
1
1
1
1
1
1
1
1
1
1
1
1
1
1
1
1
1
1
1
1
1
1
1
1
1
1
1
1
1
1
1
1
1
1
1
1
1
1
1
1
1
1
1
1
1
1
1
1
1
1
1
1
1
1
1
1
1
1
1
1
1
1
1
1
1
1
1
1
1
1
1
1
1
1
1
1
1
1
1
1
1
1
1
1
1
1
1
1
1
1
1
1
1
1
1
1
1
1
1
1
1
1
1
1
1
1
1
1
1
1
1
1
1
1
1
1
1
1
1
1
1
1
1
1
1
1
1
1
1
1
1
1
1
1
1
1
1
1
1
1
1
1
1
1
1
1
1
1
1
1
1
1
1
1
1
1
1
1
1
1
1
1
1
1
1
1
1
1
1
1
1
1
1
1
1
1
1
1
1
1
1
1
1
1
1
1
1
1
1
1
1
1
1
1
1
1
1
1
1
1
1
1
1
1
1
1
1
1
1
1
1
1
1
1
1
1
1
1
1
1
1
1
1
1
1
1
1
1
1
1
1
1
1
1
1
1
1
1
1
1
1
1
1
1
1
1
1
1
1
1
1
1
1
1
1
1
1
1
1
1
1
1
1
1
1
1
1
1
1
1
1
1
1
1
1
1
1
1
1
1
1
1
1
1
1
1
1
1
1
1
1
1
1
1
1
1
1
1
1
1
1
1
1
1
1
1
1
1
1
1
1
1
1
1
1
1
1
1
1
1
1
1
1
1
1
1
1
1
1
1
1
1
1
1
1
1
1
1
1
1
1
1
1
1
1
1
1
1
1
1
1
1
1
1
1
1
1
1
1
1
1
1
1
1
1
1
1
1
1
1
1
1
1
1
1
1
1
1
1
1
1
1
1
1
1
1
1
1
1
1
1
1
1
1
1
1
1
1
1
1
1
1
1
1
1
1
1
1
1
1
1
1
1
1
1
1
1
1
1
1
1
1
1
1
1
1
1
1
1
1
1
1
1
1
1
1
1
1
1
1
1
1
1
1
1
1
1
1
1
1
1
1
1
1
1
1
1
1
1
1
1
1
1
1
1
1
1
1
1
1
1
1
1

SCALARS density double 1
LOOKUP_TABLE default
0.996778
0.99677
0.996672
0.996768
0.9968
0.996821
0.99685
0.996875
0.996891
0.996955
0.996991
0.997016
0.997088
0.997213
0.997284
0.997393
0.997595
0.997781
0.997943
0.998196
0.998503
0.998742
0.999012
0.999354
0.999662
0.999893
1.00019
1.00048
1.00069
1.00086
1.00109
1.00125
1.00134
1.00146
1.0016
1.00165
1.00168
1.00179
1.00183
1.00184
1.00188
1.00194
1.00194
1.00196
1.002
1.002
1.00202
1.00208
1.00204
1.00202
0.996895
0.996935
0.996892
0.996997
0.996999
0.996986
0.997097
0.997117
0.997126
0.997182
0.99726
0.997274
0.997328
0.997426
0.997488
0.997564
0.997702
0.997853
0.997987
0.998187
0.998442
0.998683
0.998944
0.999274
0.999588
0.999868
1.00016
1.00045
1.00067
1.00086
1.00105
1.0012
1.00129
1.00139
1.0015
1.00155
1.0016
1.00167
1.00172
1.00174
1.0018
1.00185
1.00186
1.00187
1.00195
1.00194
1.00194
1.00199
1.00198
1.00198
0.997109
0.9972
0.997266
0.997242
0.997285
0.997334
0.997361
0.997418
0.997485
0.997521
0.997564
0.997663
0.997702
0.997709
0.997805
0.997883
0.997898
0.997971
0.998136
0.998246
0.998368
0.99863
0.998913
0.999151
0.999448
0.999832
1.00011
1.00034
1.00061
1.00085
1.00096
1.00107
1.00123
1.0013
1.00132
1.00141
1.00151
1.00151
1.00156
1.00165
1.00168
1.0017
1.00176
1.0018
1.0018
1.00183
1.00187
1.00183
1.00186
1.00191
0.997477
0.997518
0.997548
0.997459
0.997565
0.997587
0.997602
0.997635
0.997744
0.997796
0.997828
0.997932
0.997998
0.998045
0.998091
0.998159
0.998193
0.998239
0.998311
0.998396
0.998515
0.998667
0.998885
0.999114
0.999394
0.999669
0.999965
1.00022
1.00046
1.00066
1.00083
1.00096
1.00107
1.00116
1.00123
1.00131
1.00137
1.00142
1.00148
1.00155
1.00158
1.00161
1.00169
1.0017
1.00172
1.00172
1.00179
1.00173
1.00174
1.00175
0.997835
0.997753
0.997751
0.997765
0.997743
0.997728
0.997787
0.99781
0.997822
0.997895
0.997997
0.998013
0.998106
0.998228
0.998285
0.998322
0.998459
0.998551
0.998558
0.998667
0.998817
0.998889
0.998967
0.999196
0.999374
0.999514
0.999734
1.00003
1.00019
1.00037
1.00062
1.00082
1.00089
1.00104
1.0012
1.00125
1.0013
1.0014
1.00148
1.00146
1.00154
1.00159
1.00159
1.0016
1.00165
1.00164
1.00161
1.00164
1.00165
1.00159
0.998065
0.997983
0.997957
0.997971
0.997938
0.997894
0.997925
0.997933
0.997911
0.997946
0.997987
0.998049
0.998085
0.99819
0.998313
0.998432
0.998558
0.998713
0.998891
0.999006
0.999117
0.999226
0.999304
0.999325
0.999374
0.99946
0.999558
0.999675
0.999887
1.00012
1.00035
1.00056
1.00081
1.00099
1.00112
1.00124
1.00134
1.00141
1.00142
1.00148
1.00149
1.00151
1.00151
1.00152
1.00155
1.00152
1.00153
1.00153
1.00153
1.0015
0.998202
0.99821
0.998148
0.99811
0.998131
0.99813
0.998077
0.998045
0.998104
0.998033
0.998015
0.998067
0.998115
0.998123
0.998247
0.99845
0.998587
0.998788
0.99908
0.999294
0.999405
0.999553
0.999638
0.999539
0.999469
0.999466
0.999442
0.999431
0.999615
0.999872
1.00007
1.00036
1.00068
1.00091
1.00104
1.00123
1.00134
1.00134
1.00138
1.00144
1.00144
1.00138
1.00146
1.00145
1.00142
1.00142
1.00147
1.00144
1.00141
1.00145
0.998286
0.998258
0.998257
0.998224
0.998221
0.998216
0.998214
0.998189
0.998186
0.998189
0.998163
0.99814
0.998179
0.99822
0.998288
0.998419
0.998655
0.998885
0.999112
0.999395
0.999635
0.999749
0.999752
0.999779
0.999668
0.999506
0.999411
0.999457
0.99948
0.999626
0.999902
1.0002
1.00045
1.0007
1.00097
1.0011
1.0012
1.00128
1.00134
1.00134
1.00135
1.00139
1.00138
1.00138
1.0014
1.0014
1.00141
1.00138
1.00141
1.00139
0.998279
0.998164
0.998189
0.99821
0.998164
0.998122
0.99823
0.99821
0.998186
0.998241
0.99829
0.998277
0.998279
0.998427
0.998486
0.998579
0.998775
0.999016
0.999182
0.999381
0.999635
0.999731
0.999788
0.999821
0.999808
0.999654
0.999598
0.999561
0.999548
0.999572
0.999782
0.999978
1.00018
1.00046
1.00072
1.0009
1.00102
1.00121
1.00126
1.00128
1.00134
1.0014
1.00139
1.00137
1.00146
1.00142
1.0014
1.00142
1.00145
1.00137
0.998143
0.998108
0.998087
0.998048
0.998085
0.998079
0.998082
0.998118
0.998168
0.998191
0.998266
0.998383
0.998487
0.998571
0.998766
0.998929
0.999042
0.999171
0.999341
0.999426
0.999448
0.999588
0.99971
0.999731
0.99977
0.999899
0.999853
0.999747
0.999718
0.999732
0.999658
0.999735
0.999945
1.00015
1.00036
1.00063
1.0009
1.00102
1.00117
1.0013
1.00136
1.00137
1.00142
1.00145
1.00143
1.00142
1.00147
1.00143
1.00142
1.00142
0.997969
0.998042
0.998037
0.997956
0.998054
0.99806
0.998023
0.998025
0.998121
0.998168
0.998191
0.998398
0.998587
0.998761
0.998971
0.999235
0.999378
0.999415
0.999486
0.999477
0.999399
0.999408
0.999501
0.999611
0.999762
0.999949
1.00003
1.00001
0.999951
0.999823
0.999677
0.999622
0.99972
0.999833
1.00007
1.0004
1.00067
1.0009
1.0011
1.0013
1.00133
1.00138
1.00145
1.00145
1.00143
1.00143
1.0015
1.00144
1.00144
1.00148
0.997938
0.997917
0.998019
0.998038
0.998039
0.998017
0.998089
0.998065
0.998065
0.998158
0.998305
0.998385
0.998623
0.998946
0.999165
0.999358
0.999589
0.99969
0.999583
0.999515
0.99949
0.999367
0.999337
0.999528
0.999761
0.999853
1.00006
1.0002
1.00009
0.99989
0.999795
0.999681
0.99954
0.999659
0.999911
1.00014
1.0004
1.00076
1.00103
1.00113
1.0013
1.00141
1.00142
1.00141
1.00149
1.00148
1.00145
1.00146
1.00154
1.00148
0.997936
0.9979
0.998004
0.99803
0.998052
0.997981
0.998106
0.998135
0.998138
0.998244
0.998422
0.998583
0.998764
0.99905
0.999325
0.999473
0.99962
0.999711
0.999694
0.999586
0.999526
0.999491
0.999445
0.99952
0.999635
0.999826
0.999963
1.00009
1.00008
1.00004
0.999924
0.999744
0.999651
0.999647
0.999752
0.999908
1.00021
1.00053
1.00078
1.00102
1.00122
1.00135
1.00139
1.00144
1.00153
1.00149
1.0015
1.00151
1.00156
1.00151
0.997904
0.998007
0.99802
0.997916
0.99805
0.998066
0.998075
0.998126
0.998341
0.99841
0.998544
0.998852
0.999071
0.999202
0.999384
0.999608
0.999559
0.999556
0.999655
0.99966
0.999566
0.999613
0.99971
0.999606
0.999609
0.999741
0.999822
0.999823
1.00003
1.00013
1.00002
0.999928
0.999897
0.999765
0.999628
0.99982
1.00002
1.00022
1.00052
1.00089
1.00108
1.00119
1.00142
1.00148
1.00147
1.0015
1.00161
1.00152
1.00151
1.00158
0.998006
0.998046
0.998063
0.997956
0.998074
0.998108
0.998148
0.998198
0.998397
0.998617
0.998784
0.999054
0.999332
0.999477
0.999523
0.999552
0.999574
0.999494
0.999483
0.999589
0.999701
0.99976
0.999791
0.999814
0.999725
0.999628
0.999616
0.999752
0.999877
1.00002
1.00014
1.00018
1.00004
0.999853
0.999786
0.999735
0.999791
0.999998
1.00033
1.00064
1.00089
1.00116
1.00135
1.00143
1.00149
1.00152
1.00159
1.00154
1.00156
1.00157
0.998152
0.997956
0.998053
0.998105
0.998072
0.998005
0.998224
0.998297
0.998393
0.998683
0.999038
0.999228
0.999397
0.999672
0.999661
0.999519
0.999507
0.999507
0.999422
0.999482
0.999753
0.999845
0.999832
0.999901
0.999843
0.999627
0.999582
0.999699
0.99976
0.9999
1.0002
1.00027
1.00015
1.00006
0.999949
0.999742
0.999681
0.99994
1.00014
1.00038
1.00078
1.0011
1.00125
1.00137
1.00159
1.00156
1.00154
1.0016
1.00169
1.00154
0.998104
0.997999
0.998054
0.998011
0.99808
0.998062
0.998178
0.998378
0.998591
0.998808
0.999123
0.999418
0.999542
0.999587
0.999657
0.999607
0.999446
0.99944
0.999526
0.999577
0.999611
0.999801
0.999916
0.999849
0.999811
0.999796
0.999724
0.999625
0.999737
0.999957
1.00004
1.00017
1.0003
1.00026
1.00002
0.999885
0.999855
0.999802
0.999923
1.00025
1.00058
1.00085
1.00114
1.00139
1.00151
1.00156
1.00166
1.00162
1.00167
1.00164
0.997977
0.998098
0.998053
0.997886
0.998106
0.998242
0.998273
0.998471
0.99891
0.999115
0.999226
0.999539
0.999654
0.999543
0.99949
0.99957
0.999508
0.99943
0.999603
0.999671
0.999633
0.999698
0.999812
0.999801
0.999782
0.99991
0.999857
0.999766
0.999808
0.999879
0.99992
1.00007
1.00032
1.00028
1.00019
1.00015
0.999964
0.999775
0.99983
1.00012
1.00028
1.00056
1.00103
1.00126
1.00136
1.00152
1.00173
1.00162
1.00161
1.00174
0.99803
0.997929
0.997997
0.998033
0.998115
0.998207
0.998509
0.998716
0.998973
0.999293
0.999522
0.999513
0.999539
0.999562
0.999405
0.999339
0.99947
0.999609
0.999556
0.999663
0.999768
0.999649
0.999582
0.999739
0.999889
0.999842
0.999948
1.00003
0.99991
0.99977
0.999912
1.0001
1.00012
1.00032
1.00045
1.00031
1.00005
0.999979
0.999922
0.999871
1.00014
1.00052
1.00079
1.00106
1.0014
1.00152
1.00159
1.00167
1.00176
1.00166
0.997978
0.997768
0.997926
0.998111
0.998134
0.998148
0.998624
0.99893
0.999051
0.999356
0.999654
0.999625
0.999428
0.999476
0.999436
0.999307
0.999418
0.999625
0.999687
0.99965
0.999713
0.999667
0.999575
0.999674
0.999797
0.999914
1.00001
1.00009
0.999986
0.999905
0.999934
0.99993
1.00007
1.00031
1.00046
1.00035
1.00026
1.00017
0.999895
0.999832
1.00007
1.00037
1.00058
1.00094
1.00139
1.00148
1.00154
1.00171
1.00184
1.0017
0.997711
0.997889
0.997949
0.997871
0.998189
0.99844
0.998626
0.998949
0.999391
0.999504
0.999532
0.999655
0.999561
0.999339
0.99936
0.999529
0.999447
0.999496
0.999722
0.999718
0.999561
0.999624
0.99974
0.999632
0.999688
0.999974
1.00007
0.999972
1.00009
1.00013
0.999924
0.999886
1.00013
1.00025
1.00024
1.00047
1.00049
1.00019
0.999999
1.00002
0.999962
1.00004
1.00051
1.00088
1.00108
1.0014
1.00172
1.00167
1.00171
1.00189
0.9977
0.997921
0.997973
0.997903
0.998321
0.99867
0.99888
0.999124
0.99954
0.999661
0.999481
0.999471
0.999485
0.999372
0.999315
0.999473
0.999601
0.999551
0.999557
0.999625
0.999612
0.999614
0.999681
0.999746
0.9998
0.999845
0.999941
1.00006
1.00012
1.00012
1.00006
1.00007
1.00006
1.00007
1.00031
1.00052
1.0005
1.00039
1.0003
1.00014
0.999899
0.999997
1.00033
1.00061
1.0009
1.00127
1.00163
1.00166
1.00172
1.00186
0.997919
0.997696
0.997924
0.998314
0.998423
0.998599
0.999216
0.999476
0.999399
0.999519
0.99961
0.999297
0.999142
0.999427
0.999469
0.999396
0.999604
0.999725
0.999513
0.999465
0.999705
0.999682
0.99962
0.999854
0.999917
0.999757
0.999823
1.00009
1.00008
1.00004
1.00025
1.00018
0.999958
1.00008
1.00034
1.00035
1.00044
1.00073
1.00053
1.00013
1.00012
1.00017
1.00006
1.00035
1.00095
1.00117
1.00129
1.00171
1.00192
1.00171
0.997891
0.997807
0.998066
0.998369
0.998604
0.998844
0.999298
0.999569
0.999532
0.999454
0.999444
0.999352
0.999199
0.999303
0.99954
0.999593
0.999544
0.999617
0.999618
0.999544
0.999519
0.999702
0.999839
0.999794
0.999828
0.999866
0.999906
0.999861
1.00001
1.00023
1.00022
1.00015
1.00015
1.00019
1.00013
1.00025
1.00057
1.00067
1.00053
1.00041
1.00027
1.00009
1.00006
1.00032
1.0007
1.00101
1.00131
1.00158
1.00181
1.00181
0.997762
0.998253
0.998302
0.998194
0.998827
0.999357
0.999323
0.999406
0.999807
0.999586
0.999181
0.999334
0.9995
0.999313
0.999355
0.99968
0.999609
0.999376
0.999583
0.999636
0.999542
0.999659
0.999884
0.999841
0.999741
0.999967
0.999878
0.999808
1.00003
1.00021
1.00018
1.00022
1.00041
1.00018
1.00008
1.0004
1.00052
1.00044
1.00063
1.00074
1.00027
0.999971
1.00025
1.00031
1.0003
1.00085
1.00145
1.00141
1.00148
1.00194
0.998049
0.998104
0.998264
0.998565
0.998941
0.999278
0.999539
0.99954
0.999481
0.99947
0.999316
0.999169
0.999333
0.999523
0.999419
0.999413
0.999543
0.99956
0.99939
0.999594
0.999799
0.999739
0.999695
0.999869
0.99997
0.999774
0.999843
1.00001
0.999993
0.99995
1.0002
1.00044
1.00026
1.00024
1.00036
1.00034
1.00031
1.00061
1.00083
1.00066
1.00049
1.00041
1.00018
1.00014
1.00044
1.00076
1.00109
1.00148
1.00168
1.00169
0.998293
0.997861
0.998311
0.999094
0.999117
0.99912
0.999737
0.999796
0.999235
0.999187
0.999493
0.999318
0.999166
0.999592
0.999687
0.999366
0.999415
0.999632
0.999579
0.999522
0.999817
0.999839
0.999718
0.999821
0.999893
0.999851
0.999904
1.00004
0.999926
0.999956
1.00025
1.00025
1.00021
1.0004
1.00044
1.00016
1.00027
1.00072
1.00066
1.00058
1.00082
1.00067
1.00008
1.00008
1.00056
1.0006
1.0007
1.00142
1.00185
1.00153
0.997926
0.998338
0.998632
0.998796
0.999314
0.99965
0.999501
0.999433
0.999493
0.9992
0.999084
0.999425
0.99955
0.999356
0.999492
0.99964
0.999388
0.999341
0.999654
0.999762
0.999556
0.999733
0.999918
0.999731
0.999703
1.00001
1.00006
0.999859
1.00003
1.00022
1.00004
1.00013
1.00048
1.00049
1.00025
1.00038
1.00053
1.00036
1.00055
1.00098
1.00085
1.00053
1.00055
1.00041
1.00013
1.00049
1.00103
1.00114
1.00141
1.0019
0.997933
0.9987
0.998801
0.998703
0.999438
0.999897
0.999395
0.999123
0.999484
0.999376
0.998965
0.999336
0.9997
0.999435
0.999204
0.999529
0.999573
0.999349
0.99955
0.999813
0.99974
0.99966
0.999812
0.999816
0.99983
0.999925
0.999961
0.99999
1.00012
1.00006
0.999981
1.00023
1.00047
1.00033
1.0004
1.00067
1.00045
1.00026
1.00065
1.00102
1.00075
1.00068
1.00088
1.00053
1.00007
1.00043
1.00102
1.00104
1.00117
1.00178
0.99854
0.998219
0.99868
0.999545
0.999444
0.999243
0.99967
0.999534
0.998982
0.999185
0.999629
0.999345
0.999243
0.999592
0.999488
0.999153
0.999479
0.999767
0.999583
0.999586
0.999918
0.999817
0.999598
0.999875
0.999985
0.999823
0.999888
1.00019
1.00003
0.999872
1.00019
1.00026
1.00009
1.00038
1.00075
1.00046
1.00033
1.00069
1.00066
1.00045
1.00096
1.0012
1.00057
1.00039
1.00073
1.00046
1.0003
1.00117
1.00161
1.00123
0.998595
0.998303
0.998931
0.999619
0.999461
0.999196
0.999507
0.999515
0.999027
0.999052
0.99958
0.999525
0.999138
0.999326
0.999524
0.999342
0.999259
0.999659
0.999767
0.999622
0.999614
0.999774
0.999817
0.999734
0.999848
0.99995
1.00007
0.999998
1.00002
1.00019
1.00021
1.00008
1.0002
1.00059
1.00055
1.00042
1.00064
1.00078
1.00049
1.00058
1.00109
1.00112
1.00074
1.00069
1.00075
1.00051
1.00043
1.00093
1.00145
1.00133
0.998114
0.999328
0.999362
0.998809
0.99955
0.999986
0.999066
0.99885
0.999612
0.999431
0.998935
0.999461
0.999747
0.999143
0.999143
0.999694
0.999564
0.999269
0.999747
0.999873
0.999551
0.999643
0.999977
0.999825
0.9997
1.0001
1.00003
0.999847
1.00014
1.0003
1.00002
1.0001
1.00056
1.00034
1.00021
1.00078
1.00085
1.00029
1.00057
1.00115
1.00074
1.00064
1.00138
1.00112
1.00016
1.00053
1.00117
1.00061
1.00062
1.00177
0.998828
0.999219
0.999232
0.999278
0.999536
0.999591
0.999261
0.999018
0.999257
0.99945
0.999255
0.999184
0.999459
0.999423
0.999208
0.999374
0.999647
0.999589
0.999431
0.999692
0.999792
0.999728
0.99972
0.999878
1.00001
0.999849
0.999909
1.00009
1.00014
1.00006
1.00015
1.00043
1.00029
1.00021
1.00054
1.00075
1.00058
1.00062
1.00089
1.0008
1.00073
1.00107
1.00122
1.00099
1.00076
1.00066
1.00068
1.00089
1.00093
1.00106
0.999686
0.99846
0.999131
1.00038
0.999488
0.998623
0.999594
0.999734
0.998708
0.999032
0.999866
0.999272
0.998699
0.999502
0.999713
0.999146
0.999364
0.999863
0.999615
0.99932
0.999811
0.999889
0.999668
0.999866
0.999985
0.999884
0.999936
1.00018
1.00001
1.00003
1.0005
1.0003
1.00003
1.0005
1.00077
1.0003
1.0005
1.00129
1.00081
1.00026
1.00112
1.00152
1.00065
1.00084
1.00165
1.00077
0.999913
1.00103
1.0016
1.00049
0.998981
0.999446
0.999669
0.999438
0.999435
0.999436
0.999078
0.999171
0.999438
0.999209
0.999134
0.999358
0.999253
0.999042
0.999439
0.999671
0.999493
0.999508
0.999732
0.999671
0.99944
0.999739
0.999965
0.999783
0.999787
1.00005
1.00011
0.999905
1.00009
1.0004
1.00023
1.00014
1.00041
1.00049
1.00027
1.0005
1.00097
1.00078
1.00069
1.00102
1.00098
1.00081
1.00128
1.00143
1.00089
1.00095
1.00102
1.00055
1.00068
1.00139
0.998822
1.00049
0.999949
0.99857
0.99954
1.00019
0.998811
0.998526
0.999901
0.999658
0.998534
0.999053
0.999706
0.999087
0.998881
0.999786
0.999818
0.999298
0.999538
0.999802
0.999587
0.999521
0.999873
0.99989
0.999825
1.00004
0.999973
0.99998
1.00031
1.00028
1.00007
1.00034
1.00065
1.00021
1.00019
1.00104
1.00091
1.00033
1.001
1.00157
1.00062
1.00049
1.00182
1.00163
1.00045
1.00099
1.0017
1.00048
1.00003
1.00143
1.00033
0.99926
0.999332
1.00023
0.999375
0.998714
0.999508
0.999553
0.998754
0.99911
0.999574
0.998925
0.998812
0.999452
0.999493
0.999118
0.999599
0.99989
0.999492
0.999454
0.99981
0.999771
0.999554
0.999905
1.00012
0.999831
0.999923
1.00028
1.00014
1.00003
1.0004
1.0005
1.00013
1.00035
1.00086
1.00051
1.00048
1.00116
1.00118
1.00058
1.00109
1.00161
1.00086
1.00101
1.00198
1.00122
1.00022
1.00128
1.00135
1.00006
1.00042
0.998753
0.999562
1.00064
0.99933
0.998334
0.999584
0.999918
0.998591
0.998646
0.999733
0.999238
0.998564
0.999302
0.999743
0.999263
0.999268
0.999878
0.999736
0.999402
0.999648
0.999766
0.999687
0.999826
0.999971
0.999934
1.00005
1.00018
1.00006
1.0002
1.00053
1.00027
1.00012
1.00072
1.00076
1.00023
1.00065
1.00144
1.00089
1.00047
1.00152
1.00166
1.00063
1.00111
1.00218
1.00135
1.0003
1.00106
1.00169
1.00042
0.998852
1.00112
1.0004
0.998372
0.999509
1.00038
0.998633
0.998417
0.999896
0.999303
0.998118
0.999098
0.99975
0.998901
0.998938
0.999774
0.999656
0.999158
0.999654
0.999919
0.999466
0.999508
0.999886
0.999836
0.999787
1.00009
1.00011
0.999976
1.00029
1.00044
1.00007
1.00028
1.00082
1.00044
1.00021
1.00099
1.00116
1.00034
1.0009
1.00198
1.00097
1.00041
1.00205
1.00201
1.00033
1.00138
1.00252
1.00036
0.999708
1.0021
1.00001
1.00095
0.999956
0.998886
0.999528
0.999962
0.998916
0.998509
0.999369
0.999292
0.998492
0.998738
0.999532
0.999263
0.999026
0.999562
0.999713
0.999432
0.999468
0.999773
0.999728
0.999578
0.99972
0.999888
0.999978
0.999981
0.999974
1.00013
1.00031
1.0002
1.00017
1.00052
1.00059
1.00029
1.00047
1.00104
1.0008
1.00049
1.00127
1.00159
1.00092
1.00099
1.00186
1.00167
1.00104
1.00148
1.00181
1.0012
1.00044
1.00082
1.00197
0.998389
0.999219
1.00174
0.999285
0.997427
0.999972
1.00018
0.997763
0.998297
0.999934
0.998929
0.998103
0.999577
1
0.998991
0.999204
0.99991
0.999554
0.999247
0.999808
0.999892
0.999541
0.999816
1.00006
0.999868
1.00005
1.00036
1.00005
1.00008
1.00069
1.00049
1.00005
1.00075
1.00116
1.00021
1.00044
1.00187
1.00119
1.00015
1.00178
1.00254
1.00033
1.00068
1.00342
1.00172
0.999478
1.0021
1.0028
0.999315
1.00006
1.00001
1.00042
0.99987
0.999279
0.999102
0.998968
0.999107
0.998747
0.998453
0.998812
0.999
0.999021
0.999119
0.999513
0.999532
0.999377
0.999451
0.999526
0.999547
0.999597
0.999739
0.999807
0.999768
0.999831
1.00002
1.0002
1.00016
1.00014
1.00033
1.00044
1.00039
1.00048
1.00072
1.00062
1.00058
1.00099
1.00109
1.00101
1.0012
1.00164
1.00146
1.00134
1.00175
1.00164
1.00184
1.00183
1.00094
1.00127
1.00197
0.998762
1.00325
1.00104
0.996922
0.9997
1.00142
0.997922
0.997156
0.999984
0.99931
0.997314
0.998764
1.0001
0.999003
0.99873
0.99999
0.99989
0.999014
0.999421
0.999873
0.999537
0.999593
0.999988
0.999848
0.99974
1.00012
1.00013
1
1.00037
1.00042
1.00002
1.00045
1.00102
1.00031
1.00015
1.00144
1.00129
1.00002
1.00115
1.0027
1.00087
1.00014
1.00307
1.00272
0.99959
1.00162
1.00442
1.00062
0.99898
1.00319
1.00243
0.999723
0.999369
1.0009
0.999321
0.998227
0.999169
0.9991
0.997838
0.998214
0.999071
0.998762
0.998752
0.999397
0.999662
0.999274
0.99933
0.999618
0.999425
0.99933
0.999621
0.999807
0.999728
0.999793
0.999954
0.999982
1.00012
1.00026
1.00019
1.00025
1.00052
1.00055
1.0004
1.00071
1.00093
1.00064
1.00079
1.00136
1.00135
1.0009
1.00169
1.00224
1.0012
1.00135
1.00278
1.00202
1.00052
1.00287
1.00283
0.999454
1.00284
0.997306
0.99958
1.00302
0.99906
0.996365
0.999827
0.999939
0.996859
0.997562
0.999833
0.998989
0.998089
0.999636
1.00017
0.999139
0.999182
0.999836
0.999468
0.999142
0.99972
0.99993
0.999668
0.999858
1.00003
0.999925
1.00015
1.00038
1.00004
1.00016
1.00079
1.00049
1.00007
1.00092
1.00125
1.00017
1.00056
1.00219
1.00124
1.00003
1.00224
1.0032
1.00027
1.00056
1.00442
1.0024
0.999107
1.00284
1.00473
1.00014
0.99789
1.00353
1.00162
0.996707
0.999294
1.00093
0.997463
0.996772
0.999096
0.998779
0.997441
0.998609
0.999963
0.999186
0.998991
0.999836
0.999717
0.999015
0.999242
0.999711
0.99956
0.999592
0.999908
0.99988
0.999857
1.00009
1.00015
1.00009
1.00036
1.00043
1.00019
1.00053
1.00093
1.00051
1.00041
1.00132
1.00132
1.00039
1.00141
1.00251
1.00115
1.00064
1.00315
1.0029
0.999868
1.00213
1.00538
1.00061
0.999502
1.00621
1.00034
1.00446
1.00046
0.996389
0.999698
1.00072
0.997206
0.996808
0.998991
0.998477
0.997449
0.99895
1.00001
0.999253
0.99923
0.999949
0.999591
0.998941
0.999334
0.999636
0.999428
0.999632
1.00003
0.999918
0.999903
1.00021
1.00013
0.999962
1.00038
1.00055
1.00018
1.00045
1.00105
1.00056
1.00027
1.00127
1.00144
1.00038
1.00121
1.00265
1.0013
1.00046
1.00302
1.00313
0.999982
1.0016
1.00551
1.00207
0.999803
1.00326
1.00541
0.993453
0.997942
1.00458
0.998558
0.994765
0.998873
0.999714
0.996149
0.996867
0.99974
0.999148
0.998271
0.999778
1.00039
0.999146
0.998927
0.999661
0.999362
0.999075
0.999652
0.999974
0.999761
0.999911
1.0001
0.999967
1.00014
1.00033
1.00007
1.00027
1.00085
1.00051
1.00011
1.00108
1.00133
1.00017
1.00073
1.00246
1.00136
0.999991
1.00268
1.00363
0.999833
1.00074
1.00576
1.00258
0.997545
1.00557
1.00905
0.99676
0.998798
0.99822
1.00044
1.00102
0.997748
0.997526
0.99849
0.997647
0.996837
0.998027
0.998904
0.998809
0.999363
1.00015
0.999849
0.999269
0.999324
0.999334
0.998991
0.999241
0.999738
0.999824
0.999764
1.0001
1.00016
0.999924
1.00005
1.00038
1.00021
1.0002
1.00064
1.00075
1.00034
1.00066
1.00115
1.00078
1.00059
1.00163
1.00183
1.00099
1.0015
1.00292
1.00161
1.00091
1.00287
1.00374
1.00062
1.00274
1.00633
1.00678
0.997554
1.01206
1.00115
0.993483
1.00003
1.00163
0.995805
0.995061
0.999223
0.998225
0.996725
0.999031
1.0009
0.999572
0.999234
1.00025
0.999578
0.998505
0.998963
0.999554
0.999348
0.999683
1.00026
1.00008
0.999955
1.00022
0.99997
0.999834
1.00051
1.00061
1
1.00065
1.00136
1.0003
0.999953
1.00185
1.00159
0.99968
1.00155
1.00388
1.00063
0.999564
1.00486
1.00391
0.997007
1.00271
1.01002
0.998911
0.994956
1.0218

VECTORS velocity double
9.37595e-05 6.58929e-05 0
0.000107574 0.000188164 0
1.07956e-06 7.93107e-05 0
9.95971e-06 0.000108565 0
-2.32189e-05 6.45914e-05 0
-3.99427e-05 9.65481e-05 0
-7.66815e-05 6.47965e-05 0
-9.22477e-05 7.641e-05 0
-0.000109561 7.20943e-05 0
-0.00014182 9.0021e-05 0
-0.0001597 8.32914e-05 0
-0.000174115 0.000104655 0
-0.000195318 0.000115709 0
-0.000215334 0.000130132 0
-0.000223899 0.000141628 0
-0.000232087 0.000161857 0
-0.00024372 0.000168035 0
-0.000247562 0.000176983 0
-0.0002438 0.000178713 0
-0.000240661 0.000178921 0
-0.000234481 0.00016107 0
-0.000221031 0.000146839 0
-0.000206054 0.000115955 0
-0.000193863 8.50723e-05 0
-0.000183225 4.36331e-05 0
-0.000174533 1.09862e-05 0
-0.000169122 -2.82855e-05 0
-0.000166703 -5.52491e-05 0
-0.000167549 -8.16313e-05 0
-0.000169125 -9.24212e-05 0
-0.00016679 -0.000106102 0
-0.000164439 -0.000104958 0
-0.000164466 -0.000104212 0
-0.000159287 -9.92011e-05 0
-0.000149541 -9.69101e-05 0
-0.000145016 -8.53081e-05 0
-0.000140572 -8.14503e-05 0
-0.000126448 -7.55962e-05 0
-0.0001142 -7.19696e-05 0
-0.000106119 -5.91806e-05 0
-9.52284e-05 -6.97042e-05 0
-7.21636e-05 -5.78614e-05 0
-6.27161e-05 -6.41635e-05 0
-5.25368e-05 -5.43338e-05 0
-2.91731e-05 -8.1541e-05 0
-1.63437e-05 -5.34618e-05 0
3.46555e-06 -8.58339e-05 0
2.7142e-07 -5.97153e-05 0
6.3353e-05 -0.000129975 0
6.0201e-05 -4.91341e-05 0
9.43147e-05 0.00014745 0
0.000150293 0.000460893 0
4.47348e-05 0.000349324 0
1.33863e-05 0.00029268 0
-4.04782e-05 0.000278723 0
-0.000106281 0.000289865 0
-0.000138054 0.000240308 0
-0.000175751 0.000251484 0
-0.000226233 0.000254728 0
-0.000263959 0.000280887 0
-0.000296301 0.000266405 0
-0.000328967 0.000313478 0
-0.000360498 0.000341765 0
-0.00038984 0.000371498 0
-0.000411531 0.000397181 0
-0.00042827 0.000442538 0
-0.000441156 0.00046416 0
-0.000447791 0.000477578 0
-0.000446537 0.000484084 0
-0.00043987 0.000477546 0
-0.000430579 0.000437164 0
-0.000413467 0.000388073 0
-0.000395461 0.000315438 0
-0.00037722 0.000227552 0
-0.000359303 0.000126706 0
-0.000345692 3.26269e-05 0
-0.000334069 -6.39218e-05 0
-0.000323733 -0.000143624 0
-0.00031893 -0.000206238 0
-0.000317482 -0.000248746 0
-0.00031101 -0.000281587 0
-0.000306425 -0.000288438 0
-0.00030386 -0.000286508 0
-0.000295805 -0.000285201 0
-0.000284418 -0.000274851 0
-0.000272877 -0.000251338 0
-0.000259191 -0.000245388 0
-0.00023969 -0.000234451 0
-0.00021835 -0.00022545 0
-0.000198902 -0.000198136 0
-0.000177048 -0.000222432 0
-0.000153727 -0.000203739 0
-0.000117966 -0.000211286 0
-9.42572e-05 -0.000198109 0
-7.39464e-05 -0.000240755 0
-2.90573e-05 -0.000223556 0
4.93941e-06 -0.000234053 0
2.7909e-05 -0.000256359 0
9.24165e-05 -0.000330829 0
6.38405e-05 -0.000121716 0
3.42462e-05 0.000228713 0
5.85735e-05 0.000624082 0
3.14864e-05 0.000644513 0
-2.72519e-05 0.000472487 0
-9.01751e-05 0.000534599 0
-0.000105486 0.000461175 0
-0.000127772 0.000463397 0
-0.000186543 0.000449138 0
-0.000213198 0.000450488 0
-0.000220888 0.000449233 0
-0.00025322 0.000465448 0
-0.000290314 0.000483473 0
-0.000303097 0.000507442 0
-0.000314948 0.000545725 0
-0.000348546 0.000575781 0
-0.000366491 0.000610149 0
-0.000379099 0.000648257 0
-0.000398053 0.000670217 0
-0.000422859 0.000671275 0
-0.000435061 0.000661012 0
-0.000449632 0.000626482 0
-0.000464603 0.000553412 0
-0.000470689 0.000454759 0
-0.000469037 0.000341436 0
-0.000462666 0.000210938 0
-0.000446052 6.54591e-05 0
-0.000422647 -6.31304e-05 0
-0.000398603 -0.000172845 0
-0.000370217 -0.000268409 0
-0.000340567 -0.000341615 0
-0.000318812 -0.000382583 0
-0.00030248 -0.000402711 0
-0.000278239 -0.000418284 0
-0.000265139 -0.000417346 0