# vtk DataFile Version 4.0
SiwiRVisFile
ASCII
DATASET STRUCTURED_POINTS
DIMENSIONS 25 25 1
ORIGIN 0 0 0
SPACING 1 1 1
POINT_DATA 625

SCALARS flags double 1
LOOKUP_TABLE default
1
1
1
1
1
1
1
1
1
1
1
1
1
1
1
1
1
1
1
1
1
1
1
1
1
1
1
1
1
1
1
1
1
1
1
1
1
1
1
1
1
1
1
1
1
1
1
1
1
1
1
1
1
1
1
1
1
1
1
1
1
1
1
1
1
1
1
1
1
1
1
1
1
1
1
1
1
1
1
1
1
1
1
1
1
1
1
1
1
1
1
1
1
1
1
1
1
1
1
1
1
1
1
1
1
1
1
1
1
1
1
1
1
1
1
1
1
1
1
1
1
1
1
1
1
1
1
1
1
1
1
1
1
1
1
1
1
1
1
1
1
1
1
1
1
1
1
1
1
1
1
1
1
1
1
1
1
1
1
1
1
1
1
1
1
1
1
1
1
1
1
1
1
1
1
1
1
1
1
1
1
1
1
1
1
1
1
1
1
1
1
1
1
1
1
1
1
1
1
1
1
1
1
1
1
1
1
1
1
1
1
1
1
1
1
1
1
1
1
1
1
1
1
1
1
1
1
1
1
1
1
1
1
1
1
1
1
1
1
1
1
1
1
1
1
1
1
1
1
1
1
1
1
1
1
1
1
1
1
1
1
1
1
1
1
1
1
1
1
1
1
1
1
1
1
1
1
1
1
1
1
1
1
1
1
1
1
1
1
1
1
1
1
1
1
1
1
1
1
1
1
1
1
1
1
1
1
1
1
1
1
1
1
1
1
1
1
1
1
1
1
1
1
1
1
1
1
1
1
1
1
1
1
1
1
1
1
1
1
1
1
1
1
1
1
1
1
1
1
1
1
1
1
1
1
1
1
1
1
1
1
1
1
1
1
1
1
1
1
1
1
1
1
1
1
1
1
1
1
1
1
1
1
1
1
1
1
1
1
1
1
1
1
1
1
1
1
1
1
1
1
1
1
1
1
1
1
1
1
1
1
1
1
1
1
1
1
1
1
1
1
1
1
1
1
1
1
1
1
1
1
1
1
1
1
1
1
1
1
1
1
1
1
1
1
1
1
1
1
1
1
1
1
1
1
1
1
1
1
1
1
1
1
1
1
1
1
1
1
1
1
1
1
1
1
1
1
1
1
1
1
1
1
1
1
1
1
1
1
1
1
1
1
1
1
1
1
1
1
1
1
1
1
1
1
1
1
1
1
1
1
1
1
1
1
1
1
1
1
1
1
1
1
1
1
1
1
1
1
1
1
1
1
1
1
1
1
1
1
1
1
1
1
1
1
1
1
1
1
1
1
1
1
1
1
1
1
1
1
1
1
1
1
1
1
1
1
1
1
1
1
1
1
1
1
1
1
1
1
1
1
1
1
1
1
1
1
1
1
1
1
1
1
1
1
1
1
1
1
1
1
1
1
1
1
1
1
1
1
1
1
1
1
1
1
1
1
1
1
1
1
1
1
1
1

SCALARS density double 1
LOOKUP_TABLE default
0.999766
0.999794
0.999912
0.999794
0.999722
0.999955
0.999965
0.999692
0.999842
1.00015
0.999859
0.999686
1.00012
1.00012
0.999682
0.999911
1.00027
0.999873
0.999732
1.00023
1.00013
0.999698
1.00004
1.00031
0.999837
1.00007
0.999534
0.99971
1.00013
0.999823
0.999613
0.999949
1.00004
0.999771
0.999819
1.00002
0.999961
0.999874
0.99992
0.999977
1.00001
0.999959
0.999883
1.00001
1.00011
0.999938
0.999859
1.00013
1.00013
0.999816
0.999747
0.999944
0.999797
0.999756
0.999934
0.999848
0.999737
0.999985
0.999977
0.999701
0.999935
1.00015
0.999782
0.999792
1.00021
0.999975
0.999676
1.00012
1.00022
0.999692
0.999907
1.00037
0.999904
0.999657
1.00027
0.999611
1.00013
0.999922
0.999505
0.999832
1.00012
0.999802
0.999648
1
1.00006
0.999779
0.999819
1.00006
1.00001
0.999828
0.999903
1.00007
1.00001
0.999874
0.999957
1.00008
1.00003
0.999922
0.999971
1.00009
1.00004
0.999484
0.999738
1.00003
0.999791
0.999726
1.00001
0.999848
0.999735
1.00004
0.999946
0.999743
1.00004
1.00007
0.999738
0.999953
1.00019
0.999784
0.999787
1.00035
1.00003
0.999576
1.00018
1.00039
0.999634
0.999796
0.999394
0.999735
1.00013
0.999863
0.999579
0.999884
1.00012
0.999762
0.99966
1.00005
1.0001
0.999778
0.999821
1.00013
0.999983
0.999741
0.999987
1.00014
0.999908
0.999913
1.00012
1.00002
0.999945
1.00007
0.999221
1.0002
0.999747
1
0.99991
1.0001
0.999559
0.999691
1.00007
0.999853
0.999834
1.00005
0.999891
0.999853
1.0001
0.999928
0.999743
1
1
1
1.00002
1.00049
0.999788
0.999597
1.00048
0.999665
0.999713
0.999421
1
0.999762
0.999941
0.999716
0.999488
0.999915
1.00019
0.999838
0.999733
1.00012
1.00012
0.999678
0.999857
1.00021
1
1
1
1.00011
0.999737
1.00017
1.00024
0.999763
0.999898
0.998519
0.999282
1
0.999515
0.999092
1.00006
0.999986
1
0.999951
1.00008
0.999893
0.999903
0.999972
0.99988
1.00004
1.00002
1
1
1
0.999998
0.999532
1.00033
1.00053
0.999555
0.9989
0.999553
0.999588
1
0.999686
0.999597
0.999411
0.999622
0.999736
0.999735
0.999994
1.00016
0.999789
0.99978
1.00025
0.99998
0.999563
1.00025
1.00043
0.999584
1.00005
1.00068
0.999748
0.99965
1.00063
0.998828
1.00029
0.999267
0.998081
0.999509
1.00027
0.999091
0.999135
1.00022
0.999973
0.999614
0.99989
1.00013
1.00001
0.999934
0.999851
0.999969
1.00026
1.00007
0.999631
1.00024
1.00054
0.999779
0.999607
1.00053
0.999992
0.998492
0.998836
1.00002
0.999073
0.998827
0.99977
1
0.999666
0.999664
1
0.999866
1.00003
1.00009
0.999677
1.00003
1.00046
0.999617
0.999686
1.00083
1.00002
0.999175
1.00067
1.00071
0.999046
0.999389
0.998091
0.999236
1.00025
0.998941
0.998285
0.99957
1.00013
0.998696
1
1.00025
1.00007
0.999736
0.999926
1.00013
1.00006
0.999915
0.99985
1.00012
1.00028
0.99994
0.999786
1.00022
1.00047
0.999834
0.998072
1.00063
0.999541
0.997646
0.999547
1.00037
0.998414
0.998806
0.999801
0.999965
0.999681
0.999988
0.999994
0.999873
1.00021
0.999893
0.999526
1.00057
1.00039
0.998961
1.00026
1.00134
0.999105
0.999088
1.0016
0.999321
0.999862
0.998881
0.998524
0.999405
0.999679
0.998832
0.998793
0.999871
1.00001
0.999551
0.99981
1.00027
0.999961
0.999687
1.00004
1.00018
0.999969
0.999824
1.00013
1.00006
1.00003
1.0003
0.999851
0.999737
1.00049
0.996861
0.998747
1.00131
0.998435
0.997383
1.00049
1
0.999395
0.999319
1.00019
0.999993
0.999753
1.00009
0.999867
0.999979
1.00034
0.999385
0.999652
1.00147
0.999661
0.998359
1.0014
1.00142
0.997936
0.998153
0.999031
0.999551
0.998857
0.998979
0.999107
0.998853
1
0.999679
0.999816
1.00006
1
0.999626
1.00003
1.00031
0.999665
0.999678
1.00027
1.00019
0.999477
1.0003
1.00068
0.999172
0.999993
1.00149
0.997549
1.00208
0.999262
0.996176
0.999923
1.0012
0.997192
1
1.00046
1.00012
0.999081
1.0001
1.00042
0.999596
0.99979
1.00021
0.999698
1.00012
1
0.99814
1.00055
1.00228
0.998468
0.998148
1.00259
1.00088
0.997479
0.998061
1.00054
0.998702
0.997876
0.999886
1
0.999761
0.999944
0.999815
0.999901
1.00012
0.999867
0.999538
1.00021
1.00016
0.999562
1
1.00142
0.99928
0.998422
1.00211
1.00105
0.996943
0.999968
0.995155
0.998823
1.00195
0.998083
0.996906
1.00055
1
0.999115
0.999452
1.00077
0.999626
0.999238
1.00062
1.00027
0.999015
1
1
1
1.00158
0.999707
0.997664
1.0017
1.00235
0.997391
0.995052
1.00218
1
0.995125
0.999318
1.00113
0.997887
0.998488
1.00052
0.999996
0.99982
0.999886
0.999876
0.999637
1.0004
1.00005
1
1
1
1
1
1
1
0.998694
1.00666
0.998986
1.00225
0.997614
0.995653
0.99959
1.00051
0.997954
0.99909
1.00071
0.99976
0.998902
1.00026
1.0009
0.998876
0.999307
1.00143
1
1
1
1
1.00485
1.01068
1.00153
1.00142
1.00788
1.00234
0.98981
0.996686
1.00464
1
0.996417
1.00058
1.00051
0.998428
1.00018
1
0.999812
0.999811
1.00088
0.999053
0.998695
1.00226
0.997659
0.999106
1.00975
1.00579
0.995149
1.00575
1.01455
0.99847
0.993598
0.99586
1.00021
0.999195
0.995711
0.997966
0.99964
0.99903
1.00003
1.00207
1.0012
1.00688
1
1.00078
1.00116
0.998302
1
0.999437
1.00335
1.00611
1.00161
1.00075
1.00788
1.00699
1.00386
0.993889
1.00947
0.998616
0.991898
0.999655
1.00064
0.997036
0.998433
1.00127
1.00123
1.00305
1.00826
1.00214
0.994924
0.999769
1.00307
1.00085
1.00632
1.00562
0.995231
1.00253
1.01478
1.00043
0.992865
1.02406

VECTORS velocity double
-4.34611e-07 4.54036e-06 0
-0.000143114 8.32078e-05 0
-0.000263369 5.63441e-06 0
-0.000258376 -1.93771e-05 0
-0.000245468 2.28433e-05 0
-0.000435892 9.67316e-05 0
-0.000541525 -2.09523e-05 0
-0.000481166 -2.63959e-05 0
-0.000488285 4.4714e-05 0
-0.000592875 1.42592e-05 0
-0.000539304 -4.52102e-05 0
-0.000466083 -5.92333e-06 0
-0.000436599 -3.84095e-06 0
-0.000435773 -1.12734e-05 0
-0.000407949 2.5779e-06 0
-0.000397314 -1.12929e-05 0
-0.000357082 -1.12885e-05 0
-0.000386698 2.02719e-05 0
-0.000432324 2.84592e-05 0
-0.000366795 -7.34289e-05 0
-0.000228713 -5.60155e-06 0
-0.000247391 2.93932e-05 0
-0.00020764 -1.97961e-05 0
-9.38697e-05 -4.76627e-05 0
2.64336e-06 1.13276e-05 0
-8.76172e-05 0.000134994 0
-0.00039969 0.000351969 0
-0.00060675 8.79577e-05 0
-0.000765339 4.49301e-05 0
-0.00111362 0.000273479 0
-0.00136208 0.000241359 0
-0.00130775 -1.84407e-05 0
-0.00145996 6.29244e-05 0
-0.00170197 0.000150062 0
-0.00163647 -5.79792e-05 0
-0.00140246 -0.00015041 0
-0.00144037 -8.48775e-07 0
-0.00140115 -9.27999e-05 0
-0.00111651 -0.000137962 0
-0.00101592 3.76021e-05 0
-0.00122571 3.51827e-05 0
-0.00121538 -8.10361e-05 0
-0.00104241 4.82668e-06 0
-0.00104548 6.47839e-05 0
-0.00113569 -0.00018469 0
-0.000887851 -0.000223853 0
-0.000537301 -0.000103914 0
-0.000392646 -0.000115069 0
-0.000297482 -0.000257091 0
-7.3693e-05 -0.000112424 0
-0.000123177 0.000443361 0
-0.000318911 0.000525852 0
-0.00071088 0.000506205 0
-0.0014081 0.000462748 0
-0.00166827 0.000495952 0
-0.00163798 0.000272292 0
-0.00193987 0.000256612 0
-0.00240508 0.000304671 0
-0.00235012 8.2697e-05 0
-0.00224583 -0.000124485 0
-0.00230771 -0.000211953 0
-0.00207788 -0.000205737 0
-0.00173711 -0.000261781 0
-0.00172483 -0.000240736 0
-0.00163058 -2.99685e-05 0
-0.00141478 6.65254e-05 0
-0.00149225 -1.23767e-05 0
-0.00168687 -5.65385e-05 0
-0.0014604 -7.80541e-05 0
-0.00126767 -0.000163631 0
-0.00128539 -0.000452498 0
-0.000991127 -0.000530796 0
-0.000441079 -0.000307129 0
-0.000218395 -0.000313383 0
-8.28193e-05 -0.000317262 0
6.25186e-05 0.000548257 0
-0.000439238 0.00102486 0
-0.00138657 0.0012348 0
-0.00180495 0.000844613 0
-0.0016353 0.00044004 0
-0.00185294 0.0005437 0
-0.00241654 0.000715174 0
-0.00273197 0.000541534 0
-0.00276638 3.02128e-05 0
-0.00287242 -0.000137494 0
-0.00282254 -0.000335458 0
-0.00238627 -0.000580231 0
-0.00198148 -0.000470499 0
-0.00189824 -0.00032464 0
-0.00171854 -0.000220834 0
-0.00146971 -2.67146e-05 0
-0.00152134 0.000156171 0
-0.00180318 -9.50962e-06 0
-0.00173461 -0.000294511 0
-0.00135623 -0.000392131 0
-0.00115883 -0.000543869 0
-0.00112501 -0.000894805 0
-0.000695763 -0.000891802 0
-0.000153683 -0.000618144 0
6.10197e-05 -0.00040106 0
-0.000154853 0.000683146 0
-0.0011516 0.00232587 0
-0.00173176 0.00155214 0
-0.00128903 0.000621046 0
-0.00124963 0.000534184 0
-0.00198411 0.0012459 0
-0.00248227 0.00104076 0
-0.00275202 0.000772608 0
-0.00324117 0.000342411 0
-0.00328243 -0.000308042 0
-0.00277484 -0.000723296 0
-0.0025255 -0.000866897 0
-0.00228021 -0.000823109 0
-0.00175037 -0.000630366 0
-0.00145963 -0.000352839 0
-0.00151357 -0.000106424 0
-0.00127549 0.000136073 0
-0.00100057 9.19984e-05 0
-0.00126442 -0.000207129 0
-0.00149876 -0.000769139 0
-0.00117364 -0.000693752 0
-0.000918127 -0.000901249 0
-0.000787172 -0.00128814 0
-0.000437041 -0.00117127 0
-4.04003e-05 -0.000311806 0
-0.000386354 0.00148946 0
-0.000953219 0.00293011 0
-0.000983943 0.00143049 0
-0.000749618 0.000173488 0
-0.000668294 0.000907638 0
-0.00109225 0.00192278 0
-0.00202082 0.00184667 0
-0.00317816 0.00129418 0
-0.00364024 0.000495037 0
-0.00323182 -0.000628918 0
-0.00263246 -0.00115439 0
-0.00239374 -0.00114908 0
-0.00213198 -0.00120806 0
-0.00167802 -0.00100167 0
-0.00118445 -0.000665425 0
-0.000813388 -0.000344448 0
-0.000581535 -5.38198e-05 0
-0.00046593 4.9267e-05 0
-0.000443412 -5.22448e-05 0
-0.000756732 -0.000494411 0
-0.00102548 -0.000902212 0
-0.000744957 -0.00139526 0
-0.000442907 -0.00137787 0
-0.000534404 -0.00141235 0
-0.000249528 -0.000806696 0
-0.000105818 0.00223359 0
-0.000167006 0.00255376 0
-4.30717e-05 0.00150435 0
0 0 0
-0.000187007 0.00130467 0
-0.000852267 0.00249767 0
-0.00205894 0.00333182 0
-0.00299672 0.00209032 0
-0.00278376 0.000143614 0
-0.00260394 -0.000968325 0
-0.00266051 -0.00147464 0
-0.00220577 -0.00157662 0
-0.00166472 -0.00149796 0
-0.00157388 -0.00136096 0
-0.00126123 -0.00121027 0
-0.000650022 -0.000726083 0
-0.000152434 -0.0003831 0
0 0 0
0 0 0
0 0 0
-0.000481162 -0.000602812 0
-0.000791288 -0.00176703 0
-0.00029909 -0.00151305 0
-5.58527e-05 -0.0011522 0
-2.34994e-05 -0.00113915 0
0.000408221 0.00179776 0
0.000223488 0.00306374 0
-0.000150332 0.00143569 0
0 0 0
-0.000101282 0.00164179 0
-0.00102755 0.00375696 0
-0.00177969 0.00390657 0
-0.00168262 0.0022995 0
-0.00143951 -6.06832e-05 0
-0.00142547 -0.00106123 0
-0.00160366 -0.00147083 0
-0.00175856 -0.00174752 0
-0.0018554 -0.00164151 0
-0.00172647 -0.00175174 0
-0.0012123 -0.00160399 0
-0.000605729 -0.0012617 0
-0.000119821 -0.00080688 0
0 0 0
0 0 0
0 0 0
-4.71436e-05 -0.000397431 0
-0.000429337 -0.00132317 0
-0.000480591 -0.00229261 0
0.000125738 -0.00177467 0
0.000281683 -0.000873024 0
-0.000225072 0.00150241 0
-0.000348576 0.00370778 0
-8.00075e-05 0.00109172 0
0 0 0
-0.000112792 0.00196303 0
-0.000662622 0.00502066 0
-0.000731742 0.0035098 0
-0.000220672 0.00167178 0
0 0 0
-0.000430195 -0.000593736 0
-0.00119991 -0.000977114 0
-0.00192718 -0.00141114 0
-0.00209471 -0.00174668 0
-0.00150263 -0.00215401 0
-0.00117982 -0.00188057 0
-0.00132448 -0.00186623 0
-0.000641101 -0.00134487 0
0 0 0
0 0 0
0 0 0
8.71551e-05 -0.000242138 0
0.000188178 -0.000932404 0
-7.86168e-05 -0.00219434 0
-0.000450892 -0.00207634 0
-0.000213818 -0.000613343 0
-0.000281825 0.00227118 0
-5.95162e-05 0.00287527 0
0.000251278 0.00116369 0
0 0 0
-0.000810337 0.00280002 0
-0.00172279 0.00477784 0
-0.00147323 0.00358317 0
-0.00108483 0.0012543 0
-0.000996091 9.86341e-05 0
-0.00100473 -7.939e-05 0
-0.00147456 -5.62727e-06 0
-0.00207134 -0.00109476 0
-0.0020519 -0.00198197 0
-0.00216684 -0.00222492 0
-0.00222201 -0.00212007 0
-0.00189749 -0.00216844 0
-0.0019477 -0.00143353 0
-0.00181724 -0.000765623 0
-0.00096891 -0.000255714 0
-0.000746003 -8.4369e-05 0
-0.000559366 -0.0003907 0
0.000121433 -0.0019289 0
0.000364962 -0.00148527 0
-0.000343376 -0.00155664 0
-0.000338116 -0.00161752 0
0.000306596 0.00225205 0
0.000626052 0.00225747 0
0.00029118 0.00171901 0
-0.00131302 0.00128181 0
-0.0020888 0.00370213 0
-0.00214209 0.00474691 0
-0.00259171 0.00380304 0
-0.00214448 0.000638291 0
-0.0011444 -0.000376615 0
-0.00151407 0.000386752 0
-0.00220106 0.000310632 0
-0.00162721 -0.00123502 0
-0.00148859 -0.00176719 0
-0.00256876 -0.00172214 0
-0.00317516 -0.00211743 0
-0.00293309 -0.00214785 0
-0.00315797 -0.00108946 0
-0.00365668 -0.00134082 0
-0.00287117 -0.000858485 0
-0.0016276 -0.000680906 0
-0.00103466 -0.000542892 0
-0.0011231 -0.00219246 0
-0.00049359 -0.00162871 0
0.00034897 -0.00123464 0
0.00031795 -0.00147642 0
0.000442005 0.0011392 0
0.00012314 0.0035197 0
-0.000907658 0.00245105 0
-0.0014159 0.00215046 0
-0.00255444 0.00446305 0
-0.0036498 0.00549864 0
-0.00181344 0.00202903 0
0 0 0
-0.000922033 0.000142895 0
-0.000931817 0.000384956 0
0 0 0
-0.00103027 -0.000696032 0
-0.00251202 -0.000895642 0
-0.0026767 -0.00135636 0
-0.00278402 -0.00161766 0
-0.00392807 -0.00162583 0
-0.00417036 -0.00147593 0
-0.00352751 -0.00109918 0
-0.00380204 -0.00131905 0
-0.00359911 -0.00224035 0
-0.00191585 -0.0014983 0
-0.00144531 -0.00177414 0
-0.00135562 -0.00306444 0
-0.000312348 -0.0028055 0
0.000321485 -0.000760355 0
-0.000642465 0.00140106 0
-0.00080681 0.0038422 0
-0.000631765 0.00333704 0
-0.00246707 0.0034148 0
-0.00371603 0.00502367 0
-0.00207968 0.00428502 0
-0.000760203 0.00035912 0
-0.0018562 0.000367494 0
-0.00132048 -0.000175091 0
0 0 0
-0.000484852 0.000467028 0
-0.00161621 0.000593046 0
-0.00237142 -0.000196649 0
-0.00251953 -0.00119056 0
-0.00308703 -0.000870397 0
-0.00421714 -0.000868543 0
-0.00446792 -0.00167818 0
-0.0039037 -0.00120639 0
-0.00377036 -0.00140967 0
-0.00409912 -0.0024501 0
-0.00321554 -0.00270623 0
-0.00154536 -0.00255459 0
-0.00108473 -0.00255213 0
-0.00189978 -0.0030561 0
-0.000944054 -0.00142103 0
-0.000249874 0.00277825 0
-0.00034308 0.00248297 0
-0.000878602 0.00446663 0
-0.00285818 0.00613683 0
-0.00338889 0.00444286 0
-0.00312175 0.00272281 0
-0.00474331 0.00208678 0
-0.00485685 -1.06688e-05 0
-0.00322856 -0.0016274 0
-0.0030065 -0.0004288 0
-0.00314458 0.00131334 0
-0.00269291 0.000985069 0
-0.00199944 -0.000181967 0
-0.00283408 -0.000336058 0
-0.00368042 -0.000318797 0
-0.00307613 -0.000799158 0
-0.00362897 -0.000747181 0
-0.00512275 -0.00166637 0
-0.00417703 -0.00230795 0
-0.00329938 -0.00188866 0
-0.00402422 -0.00352264 0
-0.00342428 -0.00518461 0
-0.00113989 -0.00263611 0
-0.000561043 -0.00259911 0
-0.0001986 -0.00350794 0
0.000511823 0.00239605 0
-0.000562594 0.00399158 0
-0.0024909 0.00592436 0
-0.00243836 0.00623776 0
-0.00223729 0.00485368 0
-0.00367839 0.00412167 0
-0.004279 0.00286665 0
-0.00469815 -0.000408592 0
-0.00480982 -0.00221768 0
-0.00414773 -0.000992334 0
-0.00364642 0.000951911 0
-0.00287396 1.24759e-05 0
-0.00235079 -0.000485878 0
-0.00240027 0.000211085 0
-0.00253043 -0.000144442 0
-0.00270583 -0.000674207 0
-0.00352615 0.000359816 0
-0.00450116 -0.0014009 0
-0.00450411 -0.00236321 0
-0.00355117 -0.00303351 0
-0.00276769 -0.0029992 0
-0.00387229 -0.00495049 0
-0.00287251 -0.00515502 0
-0.000234595 -0.00406794 0
0.000851982 -0.00243201 0
-3.83855e-05 0.00166913 0
-0.00138068 0.00709077 0
-0.002196 0.00631662 0
-0.00163002 0.00468348 0
-0.00217929 0.00631459 0
-0.00333979 0.00583756 0
-0.00177165 0.000877623 0
0 0 0
-0.0017382 -0.00123073 0
-0.00283412 -0.00114626 0
-0.00132368 -0.000342153 0
-0.000908103 -0.000347691 0
-0.00160561 6.84805e-05 0
-0.00119793 -0.000221905 0
-0.00107273 8.07653e-05 0
-0.00279916 0.000675225 0
-0.00279067 9.44737e-05 0
-0.00143447 -0.00104474 0
-0.0036186 -0.000771923 0
-0.00586997 -0.0050352 0
-0.00363921 -0.00355486 0
-0.00278703 -0.00378038 0
-0.00334229 -0.00684102 0
-0.00296149 -0.00722094 0
-0.000452982 -0.0022501 0
-0.00157977 0.00404217 0
-0.00171241 0.00583657 0
-9.16704e-05 0.00605915 0
-0.00191105 0.0067922 0
-0.00263104 0.00579954 0
-0.00021072 0.00360793 0
0.000650302 0.000474694 0
0 0 0
0.00026465 -0.000363746 0
8.42423e-05 -0.00102565 0
-0.000182739 -0.00121761 0
0 0 0
-0.000199702 0.000248892 0
-0.000791247 -2.19563e-05 0
-0.00129975 0.000555594 0
-0.00118299 0.0011285 0
-0.000826292 -0.000669904 0
-0.00109695 -5.58605e-05 0
-0.00150384 0.000333702 0
-0.0032875 -0.00274982 0
-0.00477734 -0.00447891 0
-0.00366552 -0.00650057 0
-0.00176864 -0.0048125 0
-0.0039673 -0.00664584 0
-0.00199612 -0.00607804 0
0.000732747 0.00539676 0
0.000588344 0.00431048 0
-0.00182689 0.00748658 0
-0.00405427 0.00903329 0
-0.00297738 0.00414368 0
-0.00105307 0.00126025 0
-0.000242839 0.00126513 0
0 0 0
-0.000234731 -0.00040271 0
-0.000440063 -0.000908559 0
-0.00104436 -0.00057795 0
-0.000750358 -0.000273857 0
0.000174029 -0.000165109 0
-0.000306836 0.00112178 0
-0.000634022 0.000927954 0
0.000449157 -8.4342e-05 0
0.00012478 -0.000386749 0
-0.000642547 0.000312729 0
0 0 0
-0.000331014 0.000309834 0
-0.00336312 -0.00288252 0
-0.00672105 -0.00874214 0
-0.00334772 -0.00569682 0
-0.000397797 -0.00702728 0
0.0012893 -0.00801401 0
0.00087054 0.00292356 0
-0.00225578 0.00995442 0
-0.00597594 0.00980832 0
-0.00385974 0.00596278 0
-0.00215976 0.00376039 0
-0.00264634 0.00124988 0
-0.00128983 -0.00112514 0
0 0 0
-0.000543056 0.000542222 0
-0.000912255 -0.00101095 0
-0.0011257 -0.000374837 0
-0.00170015 -0.000640742 0
-0.00196191 -0.000303814 0
-0.000427298 8.03786e-05 0
0.000769833 0.000432101 0
0.000328446 0.000353353 0
9.31126e-07 0.000127201 0
4.61508e-05 -2.9527e-05 0
0 0 0
-0.000176687 0.000637393 0
0.000138971 -0.000120751 0
-0.00349523 -0.00415821 0
-0.00587733 -0.00972757 0
-0.00369818 -0.0132435 0
0.00110896 -0.00539546 0
-0.00198159 0.00447505 0
-0.00471651 0.0138067 0
-0.00391109 0.00919009 0
-0.00506405 0.00572248 0
-0.00929451 0.00465903 0
-0.00914104 0.000133904 0
-0.00364838 -0.00499401 0
0 0 0
-0.00160637 0.00189417 0
-0.00310864 2.66708e-05 0
-0.00196272 -0.00137611 0
-0.000828772 -8.07084e-05 0
-0.00134329 -9.81096e-05 0
-0.00118859 -0.00132297 0
-0.000479251 -0.000899813 0
4.13909e-05 0.00147711 0
0 0 0
0 0 0
0 0 0
-0.000322835 6.31911e-05 0
0.001009 0.00016122 0
3.05768e-06 -0.000187235 0
-0.00562138 -0.00585392 0
-0.0104815 -0.0165897 0
-0.00330077 -0.00941112 0
-0.0025608 0.0111604 0
-0.00232872 0.0089201 0
-0.00146543 0.0102722 0
-0.00796022 0.0136922 0
-0.00850933 0.00307243 0
-0.00530776 -0.00250126 0
-0.00841306 -0.00627388 0
-0.00868672 -0.00249772 0
-0.0025954 -0.000570274 0
-0.00114779 0.00188626 0
-0.0038996 -0.00226039 0
-0.00323449 -0.000760691 0
-0.00081711 -0.00177166 0
-0.000246644 0.000130624 0
-0.00174252 -0.00110572 0
-0.00100199 0.000131731 0
0 0 0
0 0 0
0 0 0
0 0 0
0 0 0
0 0 0
0 0 0
-0.00471561 -0.0109971 0
-0.00381084 -0.0211538 0
0.00362745 0.0095677 0
-0.000980109 0.0132761 0
-0.0107803 0.0149963 0
-0.0103959 0.0138322 0
-0.00516474 0.000838589 0
-0.00373062 -0.00168423 0
-0.00797228 -0.00210338 0
-0.0103079 -0.00513767 0
-0.00722203 -0.00403916 0
-0.00401262 0.0013337 0
-0.00260997 -0.0012309 0
-0.00194319 -0.00220157 0
-0.000311135 -0.00440721 0
0.00191891 0.000194251 0
0.00127453 0.000908368 0
-0.000134399 -0.00139316 0
0 0 0
0 0 0
0 0 0
0 0 0
-0.00424559 0.00338804 0
-0.0109531 9.20684e-05 0
-0.00825541 -0.00186271 0
0.00339772 -0.0165074 0
0.00718624 -0.017289 0
-0.00270545 0.0077065 0
-0.0133299 0.0293923 0
-0.0103131 0.0120801 0
0.000182556 0.00539794 0
0 0 0
-0.00171071 0.000349731 0
-0.00131288 0.000276657 0
-0.00279182 -0.00408773 0
-0.00564555 -0.00549175 0
-0.0027104 -0.00506198 0
0 0 0
0.000281334 -0.00455342 0
-0.00164731 -0.00258007 0
-0.00210572 -0.00396613 0
0.00207894 0.000949724 0
-0.000495729 0.00263268 0
-0.00421293 8.00306e-05 0
-0.00205835 -0.00212443 0
7.12301e-05 0.00120052 0
-0.00719665 0.00554913 0
-0.0079889 0.00594891 0
-0.0042849 0.0019552 0
-0.00571428 -0.00454691 0
-0.00717856 -0.0313791 0
-0.00211118 -0.0101875 0
-0.00631832 0.0211436 0
-0.00708755 0.0230643 0
0.00593405 0.00238476 0
0.0161523 -1.53644e-05 0
0.0156578 0.00403615 0
0.0120414 -0.000590316 0
0.0157379 -0.000963166 0
0.0167498 -0.00101463 0
0.0102228 -0.0015683 0
0.00570009 -0.00656976 0
0.0108669 -0.00376682 0
0.00789856 0.000724502 0
0 0 0
0.00219415 -0.00666955 0
0.00496336 -2.06246e-05 0
0.00206065 0.00706468 0
0 0 0
0.00307779 -0.00572406 0
0.00567958 0.0027967 0
0.00321426 0.0092929 0
0.00647234 0.000537058 0
0.0117767 0.00105617 0
0.00732756 0.000339427 0
-0.0060758 -0.0222521 0
-0.0060252 -0.0223963 0
0.0234868 0.0152595 0
0.0515417 0.00362372 0
0.0541488 -0.00193469 0
0.0489148 -0.00170832 0
0.0523507 0.00382019 0
0.056018 -0.00136432 0
0.052547 -0.00112654 0
0.0511727 5.45824e-05 0
0.0532169 0.0011335 0
0.0520693 -0.0020164 0
0.0435036 -0.00381644 0
0.0438657 0.00385726 0
0.0494843 -0.000359174 0
0.0441013 -0.00360364 0
0.0384499 -0.000295681 0
0.0441278 0.00413527 0
0.0497184 -0.00019674 0
0.0438938 -0.0038127 0
0.0402234 0.00147999 0
0.0486891 0.00391639 0
0.0522139 -0.00202847 0
0.0479692 -0.000558752 0
0.0525945 0.00367776 0
0.0524021 -0.00369921 0
0.0234519 -0.0154068 0


