# vtk DataFile Version 4.0
SiwiRVisFile
ASCII
DATASET STRUCTURED_POINTS
DIMENSIONS 50 50 1
ORIGIN 0 0 0
SPACING 1 1 1
POINT_DATA 2500


SCALARS flags double 1
LOOKUP_TABLE default
1
1
1
1
1
1
1
1
1
1
1
1
1
1
1
1
1
1
1
1
1
1
1
1
1
1
1
1
1
1
1
1
1
1
1
1
1
1
1
1
1
1
1
1
1
1
1
1
1
1
1
1
1
1
1
1
1
1
1
1
1
1
1
1
1
1
1
1
1
1
1
1
1
1
1
1
1
1
1
1
1
1
1
1
1
1
1
1
1
1
1
1
1
1
1
1
1
1
1
1
1
1
1
1
1
1
1
1
1
1
1
1
1
1
1
1
1
1
1
1
1
1
1
1
1
1
1
1
1
1
1
1
1
1
1
1
1
1
1
1
1
1
1
1
1
1
1
1
1
1
1
1
1
1
1
1
1
1
1
1
1
1
1
1
1
1
1
1
1
1
1
1
1
1
1
1
1
1
1
1
1
1
1
1
1
1
1
1
1
1
1
1
1
1
1
1
1
1
1
1
1
1
1
1
1
1
1
1
1
1
1
1
1
1
1
1
1
1
1
1
1
1
1
1
1
1
1
1
1
1
1
1
1
1
1
1
1
1
1
1
1
1
1
1
1
1
1
1
1
1
1
1
1
1
1
1
1
1
1
1
1
1
1
1
1
1
1
1
1
1
1
1
1
1
1
1
1
1
1
1
1
1
1
1
1
1
1
1
1
1
1
1
1
1
1
1
1
1
1
1
1
1
1
1
1
1
1
1
1
1
1
1
1
1
1
1
1
1
1
1
1
1
1
1
1
1
1
1
1
1
1
1
1
1
1
1
1
1
1
1
1
1
1
1
1
1
1
1
1
1
1
1
1
1
1
1
1
1
1
1
1
1
1
1
1
1
1
1
1
1
1
1
1
1
1
1
1
1
1
1
1
1
1
1
1
1
1
1
1
1
1
1
1
1
1
1
1
1
1
1
1
1
1
1
1
1
1
1
1
1
1
1
1
1
1
1
1
1
1
1
1
1
1
1
1
1
1
1
1
1
1
1
1
1
1
1
1
1
1
1
1
1
1
1
1
1
1
1
1
1
1
1
1
1
1
1
1
1
1
1
1
1
1
1
1
1
1
1
1
1
1
1
1
1
1
1
1
1
1
1
1
1
1
1
1
1
1
1
1
1
1
1
1
1
1
1
1
1
1
1
1
1
1
1
1
1
1
1
1
1
1
1
1
1
1
1
1
1
1
1
1
1
1
1
1
1
1
1
1
1
1
1
1
1
1
1
1
1
1
1
1
1
1
1
1
1
1
1
1
1
1
1
1
1
1
1
1
1
1
1
1
1
1
1
1
1
1
1
1
1
1
1
1
1
1
1
1
1
1
1
1
1
1
1
1
1
1
1
1
1
1
1
1
1
1
1
1
1
1
1
1
1
1
1
1
1
1
1
1
1
1
1
1
1
1
1
1
1
1
1
1
1
1
1
1
1
1
1
1
1
1
1
1
1
1
1
1
1
1
1
1
1
1
1
1
1
1
1
1
1
1
1
1
1
1
1
1
1
1
1
1
1
1
1
1
1
1
1
1
1
1
1
1
1
1
1
1
1
1
1
1
1
1
1
1
1
1
1
1
1
1
1
1
1
1
1
1
1
1
1
1
1
1
1
1
1
1
1
1
1
1
1
1
1
1
1
1
1
1
1
1
1
1
1
1
1
1
1
1
1
1
1
1
1
1
1
1
1
1
1
1
1
1
1
1
1
1
1
1
1
1
1
1
1
1
1
1
1
1
1
1
1
1
1
1
1
1
1
1
1
1
1
1
1
1
1
1
1
1
1
1
1
1
1
1
1
1
1
1
1
1
1
1
1
1
1
1
1
1
1
1
1
1
1
1
1
1
1
1
1
1
1
1
1
1
1
1
1
1
1
1
1
1
1
1
1
1
1
1
1
1
1
1
1
1
1
1
1
1
1
1
1
1
1
1
1
1
1
1
1
1
1
1
1
1
1
1
1
1
1
1
1
1
1
1
1
1
1
1
1
1
1
1
1
1
1
1
1
1
1
1
1
1
1
1
1
1
1
1
1
1
1
1
1
1
1
1
1
1
1
1
1
1
1
1
1
1
1
1
1
1
1
1
1
1
1
1
1
1
1
1
1
1
1
1
1
1
1
1
1
1
1
1
1
1
1
1
1
1
1
1
1
1
1
1
1
1
1
1
1
1
1
1
1
1
1
1
1
1
1
1
1
1
1
1
1
1
1
1
1
1
1
1
1
1
1
1
1
1
1
1
1
1
1
1
1
1
1
1
1
1
1
1
1
1
1
1
1
1
1
1
1
1
1
1
1
1
1
1
1
1
1
1
1
1
1
1
1
1
1
1
1
1
1
1
1
1
1
1
1
1
1
1
1
1
1
1
1
1
1
1
1
1
1
1
1
1
1
1
1
1
1
1
1
1
1
1
1
1
1
1
1
1
1
1
1
1
1
1
1
1
1
1
1
1
1
1
1
1
1
1
1
1
1
1
1
1
1
1
1
1
1
1
1
1
1
1
1
1
1
1
1
1
1
1
1
1
1
1
1
1
1
1
1
1
1
1
1
1
1
1
1
1
1
1
1
1
1
1
1
1
1
1
1
1
1
1
1
1
1
1
1
1
1
1
1
1
1
1
1
1
1
1
1
1
1
1
1
1
1
1
1
1
1
1
1
1
1
1
1
1
1
1
1
1
1
1
1
1
1
1
1
1
1
1
1
1
1
1
1
1
1
1
1
1
1
1
1
1
1
1
1
1
1
1
1
1
1
1
1
1
1
1
1
1
1
1
1
1
1
1
1
1
1
1
1
1
1
1
1
1
1
1
1
1
1
1
1
1
1
1
1
1
1
1
1
1
1
1
1
1
1
1
1
1
1
1
1
1
1
1
1
1
1
1
1
1
1
1
1
1
1
1
1
1
1
1
1
1
1
1
1
1
1
1
1
1
1
1
1
1
1
1
1
1
1
1
1
1
1
1
1
1
1
1
1
1
1
1
1
1
1
1
1
1
1
1
1
1
1
1
1
1
1
1
1
1
1
1
1
1
1
1
1
1
1
1
1
1
1
1
1
1
1
1
1
1
1
1
1
1
1
1
1
1
1
1
1
1
1
1
1
1
1
1
1
1
1
1
1
1
1
1
1
1
1
1
1
1
1
1
1
1
1
1
1
1
1
1
1
1
1
1
1
1
1
1
1
1
1
1
1
1
1
1
1
1
1
1
1
1
1
1
1
1
1
1
1
1
1
1
1
1
1
1
1
1
1
1
1
1
1
1
1
1
1
1
1
1
1
1
1
1
1
1
1
1
1
1
1
1
1
1
1
1
1
1
1
1
1
1
1
1
1
1
1
1
1
1
1
1
1
1
1
1
1
1
1
1
1
1
1
1
1
1
1
1
1
1
1
1
1
1
1
1
1
1
1
1
1
1
1
1
1
1
1
1
1
1
1
1
1
1
1
1
1
1
1
1
1
1
1
1
1
1
1
1
1
1
1
1
1
1
1
1
1
1
1
1
1
1
1
1
1
1
1
1
1
1
1
1
1
1
1
1
1
1
1
1
1
1
1
1
1
1
1
1
1
1
1
1
1
1
1
1
1
1
1
1
1
1
1
1
1
1
1
1
1
1
1
1
1
1
1
1
1
1
1
1
1
1
1
1
1
1
1
1
1
1
1
1
1
1
1
1
1
1
1
1
1
1
1
1
1
1
1
1
1
1
1
1
1
1
1
1
1
1
1
1
1
1
1
1
1
1
1
1
1
1
1
1
1
1
1
1
1
1
1
1
1
1
1
1
1
1
1
1
1
1
1
1
1
1
1
1
1
1
1
1
1
1
1
1
1
1
1
1
1
1
1
1
1
1
1
1
1
1
1
1
1
1
1
1
1
1
1
1
1
1
1
1
1
1
1
1
1
1
1
1
1
1
1
1
1
1
1
1
1
1
1
1
1
1
1
1
1
1
1
1
1
1
1
1
1
1
1
1
1
1
1
1
1
1
1
1
1
1
1
1
1
1
1
1
1
1
1
1
1
1
1
1
1
1
1
1
1
1
1
1
1
1
1
1
1
1
1
1
1
1
1
1
1
1
1
1
1
1
1
1
1
1
1
1
1
1
1
1
1
1
1
1
1
1
1
1
1
1
1
1
1
1
1
1
1
1
1
1
1
1
1
1
1
1
1
1
1
1
1
1
1
1
1
1
1
1
1
1
1
1
1
1
1
1
1
1
1
1
1
1
1
1
1
1
1
1
1
1
1
1
1
1
1
1
1
1
1
1
1
1
1
1
1
1
1
1
1
1
1
1
1
1
1
1
1
1
1
1
1
1
1
1
1
1
1
1
1
1
1
1
1
1
1
1
1
1
1
1
1
1
1
1
1
1
1
1
1
1
1
1
1
1
1
1
1
1
1
1
1
1
1
1
1
1
1
1
1
1
1
1
1
1
1
1
1
1
1
1
1
1
1
1
1
1
1
1
1
1
1
1
1
1
1
1
1
1
1
1
1
1
1
1
1
1
1
1
1
1
1
1
1
1
1
1
1
1
1
1
1
1
1
1
1
1
1
1
1
1
1
1
1
1
1
1
1
1
1
1
1
1
1
1
1
1
1
1
1
1
1
1
1
1
1
1
1
1
1
1
1
1
1
1
1
1
1
1
1
1
1
1
1
1
1
1
1
1
1
1
1
1
1
1
1
1
1
1
1
1
1
1
1
1
1
1
1
1
1
1
1
1
1
1
1
1
1
1
1
1
1
1
1
1
1
1
1
1
1
1
1
1
1
1
1
1
1
1
1
1
1
1
1
1
1
1
1
1
1
1
1
1
1
1
1
1
1
1
1
1
1
1
1
1
1
1
1
1
1
1
1
1
1
1
1
1
1
1
1
1
1
1
1
1
1
1
1
1
1
1
1
1
1
1
1
1
1
1
1
1
1
1
1
1
1
1
1
1
1
1
1
1
1
1
1
1
1
1
1
1
1
1
1
1
1
1
1
1
1
1
1
1
1
1
1
1
1
1
1
1
1
1
1
1
1
1
1
1
1
1
1
1
1
1
1
1
1
1
1
1
1
1
1
1
1
1
1
1
1
1
1
1
1
1
1
1
1
1
1
1
1
1
1
1
1
1
1
1
1
1
1
1
1
1
1
1
1
1
1
1
1
1
1
1
1
1
1
1
1
1
1
1
1
1
1
1
1
1
1
1
1
1
1
1
1
1
1
1
1
1
1
1
1
1
1
1
1
1
1
1
1
1
1
1
1
1
1
1
1
1
1
1
1
1
1
1
1
1
1
1
1
1
1
1
1
1
1
1
1
1
1
1
1
1
1
1
1
1
1
1
1
1
1
1
1
1
1
1
1
1
1
1
1
1
1
1
1
1
1
1
1
1
1
1
1
1
1
1
1
1
1
1
1
1
1
1
1
1
1
1
1
1
1
1
1
1
1
1
1
1
1
1
1
1
1
1
1
1
1
1
1
1
1
1
1
1
1
1
1
1
1
1
1
1
1
1
1
1
1
1
1
1
1
1
1
1
1
1
1
1
1
1
1
1
1
1
1
1
1
1
1
1
1
1
1
1
1
1
1
1
1
1
1
1
1
1
1
1
1
1
1
1
1
1
1
1
1
1
1
1
1
1
1
1
1
1
1
1
1
1
1
1
1
1
1
1
1
1
1
1
1
1
1

SCALARS density double 1
LOOKUP_TABLE default
0.999947
0.999916
0.999939
0.999957
0.999925
0.99993
0.999963
0.999944
0.999922
0.999958
0.999965
0.999916
0.999939
0.999993
0.99993
0.999902
0.999987
0.999973
0.999894
0.999943
0.999989
0.999929
0.999916
0.999968
0.999965
0.999923
0.999932
0.999976
0.999956
0.999908
0.999954
0.99999
0.999919
0.999912
0.999988
0.999958
0.999903
0.999955
0.999975
0.999927
0.999936
0.999972
0.999949
0.999929
0.999962
0.99997
0.999934
0.999953
0.999977
0.999944
0.999911
0.999938
0.99995
0.999922
0.999929
0.999949
0.999938
0.999939
0.999941
0.999942
0.999957
0.999944
0.999922
0.999956
0.999968
0.99992
0.999933
0.999977
0.999941
0.999923
0.999964
0.999957
0.999928
0.999951
0.99996
0.999933
0.999943
0.999963
0.999937
0.999931
0.999967
0.999951
0.999921
0.999958
0.999968
0.999929
0.999938
0.999965
0.999948
0.999938
0.999948
0.99995
0.999955
0.999954
0.999941
0.999963
0.99997
0.99994
0.999953
0.999981
0.999931
0.99995
0.999921
0.999918
0.999945
0.999939
0.999911
0.999934
0.999972
0.999923
0.999909
0.999988
0.999965
0.999895
0.999952
0.999995
0.999921
0.999909
0.999986
0.999966
0.999897
0.999948
0.999997
0.999923
0.999905
0.999989
0.999965
0.999894
0.999948
0.999994
0.999922
0.999909
0.999985
0.999966
0.999899
0.999945
0.999993
0.999926
0.999909
0.999982
0.999967
0.999922
0.999958
0.99998
0.999953
0.999945
0.999973
0.999971
0.999942
0.999959
0.999939
0.999903
0.999916
0.999922
0.999916
0.999927
0.999921
0.999916
0.999937
0.999941
0.999933
0.999933
0.999946
0.999948
0.999941
0.999944
0.999946
0.999947
0.999945
0.999946
0.999946
0.999945
0.999946
0.999945
0.999944
0.999947
0.999949
0.999947
0.999946
0.999946
0.999947
0.999947
0.999943
0.999946
0.999949
0.999948
0.999942
0.999949
0.999958
0.999954
0.999953
0.999956
0.99997
0.999968
0.999964
0.999973
0.999964
0.999973
0.999986
0.99995
0.99989
0.99987
0.999907
0.999911
0.999877
0.999879
0.999938
0.999909
0.999863
0.99994
0.999957
0.999893
0.999923
0.999976
0.999935
0.999906
0.999967
0.999977
0.999908
0.999924
0.999998
0.999947
0.999885
0.999974
0.999997
0.999893
0.99992
1.00001
0.999942
0.999893
0.999972
0.999983
0.999911
0.999927
0.999987
0.999952
0.999915
0.999968
0.999992
0.999933
0.999951
1.00002
0.999975
0.999952
1
1
0.999975
0.999976
1.00001
0.999996
0.999851
0.999862
0.999838
0.999851
0.999866
0.999841
0.999847
0.99988
0.99989
0.999868
0.999888
0.999925
0.999921
0.999921
0.999935
0.999953
0.999937
0.999934
0.999959
0.999944
0.999932
0.999954
0.999954
0.999936
0.999941
0.999953
0.99995
0.999935
0.999942
0.999959
0.999943
0.999932
0.99996
0.999953
0.999934
0.999955
0.999969
0.999964
0.99996
0.999997
1.00001
0.999987
1
1.00003
1.00003
1.00001
1.00002
1.00003
1.00001
1.00003
0.999782
0.9998
0.99976
0.999724
0.999794
0.999806
0.999742
0.999796
0.999841
0.999806
0.999833
0.999888
0.999891
0.999869
0.999924
0.999961
0.999908
0.999912
0.99998
0.999957
0.9999
0.999952
0.999989
0.999924
0.999914
0.999977
0.999967
0.999903
0.999939
0.999988
0.999932
0.99991
0.999975
0.999978
0.999925
0.999963
1.00001
0.999984
0.99999
1.00004
1.00006
1.00003
1.00006
1.00011
1.00005
1.00006
1.00012
1.00009
1.00005
1.00007
0.999653
0.999615
0.999645
0.999625
0.99959
0.999628
0.999676
0.999646
0.999669
0.999736
0.99974
0.999765
0.999813
0.999852
0.999867
0.999876
0.999927
0.999936
0.999915
0.999932
0.999966
0.999941
0.999915
0.999961
0.999965
0.999922
0.999932
0.999977
0.999943
0.999921
0.999962
0.999971
0.999944
0.999957
1.00001
1
1.00001
1.00005
1.00009
1.0001
1.0001
1.00016
1.00017
1.00014
1.00019
1.00022
1.00018
1.00017
1.0002
1.00017
0.999499
0.999351
0.999383
0.99944
0.999357
0.999383
0.999441
0.999437
0.999471
0.999533
0.999585
0.999598
0.999664
0.999764
0.999771
0.999806
0.999876
0.99992
0.999893
0.999915
0.999966
0.999936
0.99992
0.999947
0.999966
0.999925
0.999936
0.999966
0.999956
0.999921
0.999965
0.999989
0.999961
0.999996
1.00005
1.00008
1.00008
1.00016
1.00021
1.00021
1.00025
1.0003
1.00032
1.00031
1.00035
1.00037
1.0003
1.00035
1.00038
1.00027
0.999153
0.999113
0.999069
0.999051
0.999068
0.999088
0.999073
0.999155
0.999188
0.999226
0.999292
0.999388
0.999465
0.999484
0.999623
0.999727
0.999742
0.999789
0.999899
0.99992
0.999863
0.999931
0.999993
0.99992
0.999894
0.999993
0.999963
0.999893
0.999953
1.00002
0.999953
0.999972
1.00007
1.0001
1.0001
1.00019
1.0003
1.00029
1.00035
1.00043
1.00046
1.00048
1.0005
1.00057
1.00054
1.00055
1.00058
1.00057
1.00051
1.00051
0.998716
0.998785
0.998693
0.998648
0.998686
0.998724
0.998691
0.998753
0.99882
0.998863
0.998911
0.999036
0.999121
0.999222
0.999326
0.999467
0.999581
0.999646
0.999756
0.999835
0.999867
0.999891
0.99993
0.999939
0.999921
0.999959
0.999948
0.99995
0.999981
0.999999
1.00003
1.00008
1.00017
1.00022
1.0003
1.0004
1.00047
1.00054
1.00058
1.00067
1.00069
1.00072
1.00076
1.0008
1.00077
1.0008
1.00083
1.00081
1.00073
1.0008
0.998402
0.99834
0.998284
0.998384
0.998329
0.998362
0.998369
0.998416
0.998403
0.998505
0.998602
0.998572
0.998713
0.9989
0.998957
0.999069
0.999299
0.999486
0.999494
0.999661
0.999843
0.999824
0.999834
0.999935
0.999998
0.999876
0.999942
1.00003
1.00003
1
1.00016
1.00029
1.00027
1.00041
1.00058
1.00065
1.00066
1.00079
1.00089
1.00084
1.00091
1.00099
1.00096
1.00099
1.00101
1.00105
1.00098
1.00107
1.00105
1.00099
0.998056
0.998039
0.998082
0.998207
0.998101
0.998144
0.998206
0.998243
0.998184
0.998221
0.998281
0.998321
0.998352
0.998431
0.998609
0.998687
0.998868
0.999059
0.999279
0.999431
0.999568
0.999732
0.999795
0.99987
0.999887
0.999978
0.999982
1.00005
1.00009
1.00023
1.00031
1.00042
1.00059
1.0007
1.00082
1.00085
1.00098
1.00101
1.00102
1.00106
1.0011
1.00113
1.00109
1.00113
1.00117
1.00121
1.00113
1.00122
1.00125
1.00124
0.997775
0.997993
0.998017
0.998049
0.998094
0.99822
0.998127
0.998147
0.998236
0.998164
0.99812
0.998213
0.998177
0.998141
0.998213
0.998402
0.998419
0.998597
0.998909
0.999087
0.999233
0.999479
0.99972
0.999734
0.999823
1.00001
1.00009
1.00007
1.00028
1.00046
1.00055
1.00066
1.0009
1.001
1.00097
1.00112
1.00116
1.00113
1.00111
1.00121
1.00119
1.00114
1.00124
1.00127
1.00119
1.00129
1.00133
1.00134
1.00132
1.00148
0.997795
0.998023
0.997994
0.998049
0.998151
0.998252
0.998181
0.998239
0.9983
0.998297
0.998241
0.99819
0.998218
0.998158
0.998108
0.998071
0.998191
0.998285
0.998388
0.998665
0.998937
0.999156
0.999383
0.99963
0.999849
0.99993
1.00013
1.00034
1.00049
1.00065
1.00083
1.00104
1.00106
1.00112
1.00124
1.00119
1.00117
1.00117
1.00123
1.00121
1.00121
1.00125
1.00129
1.00134
1.00131
1.00137
1.00142
1.00148
1.00141
1.00154
0.99794
0.997942
0.997975
0.998148
0.99807
0.998062
0.998216
0.998328
0.998217
0.998296
0.998435
0.998352
0.998258
0.998331
0.998207
0.998041
0.998089
0.998081
0.99807
0.99822
0.998544
0.99879
0.998986
0.999448
0.999725
0.999959
1.00021
1.0006
1.00073
1.00089
1.00114
1.00123
1.00122
1.00122
1.0013
1.00121
1.00115
1.00129
1.00124
1.00121
1.00135
1.00143
1.00134
1.00142
1.00154
1.00153
1.00143
1.00159
1.00159
1.00155
0.997988
0.997992
0.997931
0.998002
0.997928
0.998003
0.997995
0.998101
0.998111
0.998196
0.998287
0.998385
0.99838
0.998364
0.998377
0.998357
0.99808
0.998037
0.998042
0.998028
0.998077
0.998372
0.99882
0.999046
0.999543
0.999991
1.00045
1.00061
1.001
1.00124
1.00125
1.00126
1.00131
1.00134
1.00115
1.00122
1.00131
1.00131
1.00133
1.00144
1.0015
1.00153
1.00156
1.00162
1.00159
1.00166
1.00161
1.00167
1.00161
1.00165
0.998026
0.99821
0.997974
0.997938
0.997934
0.998082
0.997848
0.997836
0.998073
0.998056
0.99798
0.998184
0.998409
0.99832
0.998428
0.998471
0.998408
0.998142
0.998159
0.998036
0.997962
0.998156
0.998461
0.998902
0.999308
1.00001
1.0004
1.00082
1.00109
1.0013
1.00128
1.00125
1.00135
1.0012
1.00124
1.00132
1.00143
1.00137
1.00152
1.00167
1.00158
1.00154
1.00173
1.00171
1.00153
1.00165
1.00168
1.00167
1.0015
1.0017
0.998227
0.998177
0.998023
0.998237
0.998018
0.99804
0.998024
0.997967
0.9979
0.997887
0.997949
0.997928
0.998046
0.998246
0.998272
0.998382
0.998481
0.998525
0.998198
0.998147
0.9982
0.998119
0.99825
0.998776
0.999354
0.999745
1.00035
1.00089
1.00111
1.00111
1.00131
1.00137
1.00116
1.00129
1.00142
1.0015
1.00148
1.00164
1.0017
1.00162
1.00169
1.00168
1.00162
1.00158
1.00165
1.00165
1.0015
1.00169
1.00161
1.00158
0.998271
0.998074
0.998076
0.998373
0.99807
0.99801
0.998161
0.998136
0.997895
0.997877
0.998026
0.997861
0.997755
0.997987
0.998182
0.998158
0.998353
0.998538
0.998514
0.998426
0.998389
0.998386
0.998503
0.998732
0.999268
0.999658
1.00023
1.00061
1.00087
1.00108
1.00116
1.00122
1.00127
1.00145
1.00159
1.00153
1.00166
1.0018
1.00169
1.00157
1.00171
1.00171
1.00157
1.00157
1.00172
1.00168
1.00148
1.0017
1.00171
1.00158
0.997983
0.998196
0.998013
0.997966
0.997983
0.998132
0.998013
0.998003
0.998176
0.998022
0.99794
0.997932
0.997948
0.99778
0.997827
0.998084
0.998177
0.998263
0.998687
0.998716
0.998638
0.998828
0.998952
0.999015
0.999069
0.999753
0.999936
1.00017
1.00053
1.00091
1.00102
1.0011
1.00152
1.00156
1.00155
1.00177
1.00178
1.00161
1.00165
1.0017
1.00165
1.00152
1.00173
1.00171
1.00159
1.00172
1.00178
1.0017
1.00156
1.00179
0.997752
0.998023
0.99777
0.997741
0.997791
0.998
0.997854
0.997875
0.998084
0.998113
0.997965
0.997993
0.998059
0.997868
0.997702
0.997912
0.997968
0.998151
0.998376
0.998859
0.999082
0.999188
0.999346
0.999367
0.999514
0.999379
0.999654
0.999884
1.00026
1.00054
1.00087
1.00135
1.0015
1.00164
1.00168
1.00182
1.0017
1.00158
1.00168
1.00169
1.00162
1.00164
1.00179
1.00176
1.00167
1.00179
1.00183
1.00181
1.00165
1.00185
0.997818
0.997678
0.997635
0.998026
0.997737
0.997683
0.997942
0.997971
0.997781
0.997932
0.9982
0.998018
0.997947
0.998112
0.998051
0.997719
0.997912
0.998139
0.998366
0.998676
0.999403
0.999655
0.999644
0.999865
0.999683
0.999416
0.999315
0.999702
0.999826
1.00017
1.0009
1.00122
1.0014
1.00161
1.00182
1.00156
1.00153
1.00175
1.0017
1.00151
1.00177
1.00186
1.00167
1.00166
1.00192
1.00182
1.00157
1.00188
1.00188
1.0017
0.997632
0.997663
0.997669
0.997918
0.99774
0.997717
0.997814
0.997799
0.997755
0.997727
0.997961
0.997978
0.997979
0.998015
0.998115
0.998024
0.997891
0.998152
0.998384
0.99882
0.999236
0.999853
1.00019
1
0.99982
0.999573
0.999413
0.999217
0.999598
1.00021
1.0006
1.00103
1.00133
1.00163
1.00155
1.00157
1.0017
1.00171
1.00171
1.00173
1.0019
1.00182
1.00183
1.00182
1.00188
1.00186
1.00177
1.00188
1.00188
1.00188
0.997367
0.997919
0.997719
0.997517
0.997708
0.997971
0.997608
0.997531
0.997945
0.997821
0.997568
0.997837
0.998112
0.997939
0.997947
0.998325
0.99829
0.998114
0.998568
0.999033
0.999318
0.999795
1.00028
1.0002
0.999907
0.999775
0.999426
0.999244
0.999558
1
1.00027
1.00077
1.00134
1.00129
1.00134
1.00174
1.00176
1.00158
1.00181
1.00203
1.00179
1.00167
1.00206
1.00198
1.00168
1.00191
1.00212
1.00188
1.00172
1.00212
0.997681
0.997871
0.997633
0.99781
0.997712
0.997867
0.997875
0.997853
0.997879
0.99791
0.997875
0.997725
0.997899
0.998039
0.998047
0.998184
0.998517
0.998713
0.998814
0.999152
0.999615
0.999835
0.999927
1.00024
1.00015
0.999764
0.999523
0.999598
0.999536
0.999596
1.00012
1.00056
1.00075
1.00108
1.00149
1.00163
1.00163
1.00179
1.00193
1.00176
1.00178
1.00184
1.00183
1.00178
1.00188
1.00192
1.00183
1.002
1.00186
1.0019
0.997994
0.997555
0.99765
0.99813
0.997759
0.997582
0.997984
0.998048
0.997671
0.997688
0.998079
0.997805
0.99754
0.997924
0.998163
0.998104
0.998438
0.999112
0.999246
0.999332
0.999686
0.999839
0.999815
0.999914
1.00012
0.99989
0.999914
0.999809
0.999571
0.999608
0.999936
1.00016
1.00042
1.00113
1.00152
1.00149
1.00173
1.0021
1.00189
1.00169
1.00206
1.00207
1.00178
1.00182
1.00218
1.00197
1.0017
1.00206
1.00218
1.00178
0.997661
0.997963
0.997816
0.997655
0.997739
0.997868
0.997546
0.997617
0.997904
0.997746
0.99764
0.997931
0.997969
0.997754
0.998014
0.99851
0.998712
0.999037
0.999756
0.999878
0.999749
0.999734
0.999813
0.999735
0.999691
1.00027
1.00017
0.999863
0.999775
0.99969
0.999543
0.999679
1.00045
1.00085
1.00106
1.0016
1.0019
1.00172
1.0018
1.00211
1.002
1.00183
1.00218
1.00221
1.00192
1.00204
1.00222
1.00195
1.00188
1.00221
0.997563
0.998166
0.997683
0.997382
0.997639
0.997981
0.997454
0.997365
0.997924
0.997888
0.997569
0.997786
0.99823
0.997905
0.997924
0.998565
0.999011
0.999269
0.999695
1.00024
0.99993
0.999654
0.999638
0.999571
0.999861
1.00004
1.00029
1.00016
1.00002
0.999691
0.999306
0.999788
1.00021
1.00051
1.00102
1.00169
1.00177
1.00156
1.00199
1.00214
1.00188
1.00185
1.00232
1.0022
1.00187
1.00212
1.00239
1.0021
1.00181
1.00228
0.998096
0.99741
0.997458
0.998091
0.99765
0.997376
0.997892
0.997958
0.997491
0.997638
0.998031
0.997689
0.997617
0.998203
0.998354
0.998351
0.999024
0.99974
0.999868
0.999834
1.0002
0.999848
0.999362
0.999584
0.999795
1.00002
1.00023
1.00053
1.00006
0.999557
0.999784
0.999695
0.999768
1.00044
1.00121
1.00131
1.00149
1.00213
1.00208
1.00174
1.00214
1.00229
1.00183
1.00189
1.00244
1.00211
1.00178
1.00234
1.00248
1.0018
0.997633
0.997282
0.997439
0.997992
0.997508
0.99736
0.997738
0.997923
0.997417
0.997285
0.997809
0.997787
0.997566
0.997943
0.998685
0.998793
0.999107
0.999806
1.00008
1.00003
0.99986
0.999889
0.999657
0.999545
0.999824
0.999943
1.0003
1.00029
1.00009
1.00004
0.999732
0.999525
0.999736
1.00041
1.00077
1.00099
1.00172
1.00208
1.00192
1.00198
1.00245
1.0023
1.00198
1.00214
1.00239
1.00224
1.00197
1.00231
1.00248
1.00227
0.996921
0.99793
0.997662
0.996928
0.997528
0.998064
0.997281
0.997125
0.998017
0.99768
0.997197
0.99778
0.998233
0.99797
0.998329
0.999446
0.999582
0.999526
1.00002
1.00007
0.99969
0.999593
0.999908
0.999776
0.99965
1.00009
1.00013
1.00008
1.00039
1.00031
0.999827
0.999668
1.0001
1.00007
1.00019
1.00129
1.00167
1.00145
1.00193
1.00251
1.00209
1.0018
1.00268
1.00251
1.00181
1.00227
1.00288
1.0021
1.00193
1.00282
0.997407
0.997695
0.99745
0.997349
0.997476
0.997653
0.997522
0.99739
0.997703
0.997872
0.99769
0.997637
0.998111
0.998411
0.998598
0.999145
0.999872
0.999885
0.999682
0.99974
0.999767
0.999726
0.999736
0.999956
0.999996
0.999856
0.999913
1.0002
1.00033
1.00025
1.00017
1.00015
0.999846
0.999803
1.00048
1.00102
1.00124
1.00161
1.00212
1.00205
1.00198
1.00222
1.00237
1.00225
1.00233
1.00236
1.0024
1.0024
1.00225
1.00227
0.997898
0.996593
0.996999
0.998148
0.9972
0.996596
0.997763
0.997931
0.996897
0.997172
0.998273
0.997618
0.997354
0.998553
0.999242
0.999107
0.999508
1.00029
0.999764
0.999317
0.99969
0.999803
0.999777
1.00006
1.00014
0.999788
0.999824
1.00018
1.00022
1.00032
1.00066
1.00022
0.999583
1.00017
1.00054
1.00043
1.00113
1.00231
1.00215
1.00161
1.00265
1.00287
1.00192
1.00209
1.00319
1.00259
1.00183
1.00282
1.00319
1.00195
0.997126
0.9975
0.997563
0.997267
0.99744
0.997556
0.997381
0.997483
0.997672
0.997495
0.997527
0.998028
0.998203
0.998501
0.999329
0.999852
0.999848
0.999771
0.999918
0.999579
0.999398
0.999727
1.00005
1.00006
0.999925
1.00001
0.999929
0.999902
1.00021
1.00065
1.00054
1.00013
1.00015
0.99999
0.999861
1.00038
1.00126
1.00154
1.00175
1.00236
1.00233
1.00208
1.00246
1.00251
1.00225
1.00245
1.00281
1.00226
1.00235
1.00286
0.996709
0.998334
0.997578
0.996386
0.997435
0.998299
0.997008
0.996637
0.997997
0.997731
0.996867
0.997646
0.998908
0.998612
0.998877
0.999994
1.00011
0.999487
0.999378
0.9997
0.999418
0.999532
0.999995
0.99999
0.999955
1.00003
0.999983
0.999935
1.00041
1.00067
1.00045
1.00066
1.00053
0.999832
0.999814
1.00088
1.00118
1.00097
1.00213
1.00289
1.00211
1.00195
1.00323
1.00285
1.00177
1.00257
1.00347
1.00242
1.00184
1.00321
0.998144
0.996746
0.996998
0.997989
0.997373
0.996804
0.99769
0.997626
0.997003
0.997462
0.998029
0.997805
0.997989
0.999384
0.999589
0.999506
0.999908
0.999987
0.999447
0.999278
0.999842
0.999796
0.999681
1.00002
1.00013
0.999913
0.999909
1.00024
1.00026
1.00023
1.00081
1.00074
1.00015
1.00008
1.00044
1.00033
1.00047
1.00184
1.00207
1.00173
1.00239
1.00294
1.00228
1.00224
1.00328
1.00255
1.00195
1.00305
1.00337
1.00183
0.997702
0.996311
0.99703
0.998414
0.997107
0.996357
0.997607
0.998001
0.996923
0.997059
0.998408
0.998119
0.998039
0.999171
1.00011
0.999618
0.999615
0.999983
0.999575
0.999383
0.999665
0.999891
0.999758
0.999802
0.99999
0.999948
1.0002
1.00029
1.00013
1.00039
1.00076
1.0006
1.00019
1.0005
1.00043
0.999937
1.00076
1.00185
1.00176
1.00154
1.00284
1.00298
1.00202
1.00248
1.00353
1.00282
1.00189
1.00295
1.00359
1.00258
0.996201
0.998389
0.997896
0.995922
0.997304
0.998335
0.996639
0.996428
0.998181
0.997672
0.996908
0.998174
0.999185
0.998893
0.999101
1.00032
0.999921
0.999196
0.999529
0.999793
0.999532
0.99948
0.999825
0.999706
0.999684
1.00024
1.00035
1.00019
1.00049
1.0006
1.00041
1.00061
1.00101
1.00039
0.999852
1.00089
1.00116
1.00075
1.00169
1.00304
1.00231
1.00176
1.00352
1.00337
1.00171
1.00281
1.00425
1.00215
1.00183
1.00407
0.99681
0.998004
0.997108
0.996344
0.997303
0.997865
0.996942
0.996677
0.997649
0.997909
0.997364
0.998175
0.999394
0.999414
0.999545
1.00001
1.00015
0.999484
0.999454
0.999851
0.999726
0.999612
0.999695
0.999784
0.999901
1.0001
1.00021
1.00035
1.0005
1.00042
1.0003
1.00076
1.00085
1.00021
1.00025
1.0007
1.00073
1.0007
1.00184
1.00259
1.00206
1.00239
1.00328
1.00298
1.00245
1.00284
1.00355
1.00311
1.00245
1.00313
0.998733
0.995143
0.996275
0.999101
0.99688
0.995346
0.998099
0.99831
0.996076
0.996633
0.998882
0.998345
0.998019
0.999808
1.00025
0.999419
0.999347
0.999961
0.999542
0.999272
0.999759
0.999688
0.999416
0.999678
0.99992
0.999975
1.00027
1.00065
1.00045
1.00029
1.00083
1.00074
1.00036
1.00097
1.00101
1.00012
1.00039
1.00216
1.00186
1.00114
1.00322
1.00396
1.00182
1.00206
1.00478
1.00321
1.00119
1.00409
1.00502
1.00148
0.996522
0.996788
0.997346
0.99712
0.997168
0.996923
0.997199
0.997345
0.997193
0.99728
0.997796
0.998678
0.99897
0.999601
1.00008
0.999922
0.999715
0.999617
0.999822
0.999795
0.999521
0.999526
0.999665
0.999756
0.999868
1.00014
1.00039
1.00046
1.00049
1.0006
1.00048
1.00044
1.00071
1.00081
1.00057
1.00036
1.00081
1.00135
1.00148
1.00223
1.00276
1.00278
1.0028
1.00301
1.00311
1.00304
1.00353
1.00277
1.00334
1.00418
0.994932
0.999576
0.997503
0.994178
0.99705
0.999305
0.995851
0.995482
0.998677
0.998009
0.996537
0.99812
1.00015
0.999476
0.999343
1.00051
0.999974
0.99912
0.999599
0.999994
0.999315
0.999136
0.999664
0.999638
0.999704
1.0003
1.00041
1.00035
1.00089
1.00083
1.00015
1.00049
1.00121
1.00063
1.00011
1.0013
1.00122
1.00025
1.00195
1.00363
1.00216
1.00147
1.00458
1.00433
1.00102
1.00335
1.00604
1.0027
1.00118
1.00552
0.998466
0.995887
0.996155
0.997865
0.997085
0.996048
0.997609
0.997655
0.996805
0.997456
0.998327
0.998533
0.998752
1.00003
1.00041
0.999833
0.999616
0.999738
0.999732
0.999514
0.99944
0.99945
0.999487
0.99968
0.999979
1.00019
1.0004
1.00058
1.00063
1.00061
1.00058
1.00053
1.00063
1.00089
1.00098
1.00056
1.00071
1.00172
1.00189
1.00191
1.00262
1.00342
1.00258
1.00262
1.00444
1.00323
1.00229
1.00453
1.00492
1.00166
0.998624
0.993633
0.99589
1.00013
0.995949
0.994216
0.99784
0.998541
0.995765
0.99652
0.999137
0.998461
0.998218
1.00011
1.00078
0.999666
0.9995
1.00021
0.999708
0.999163
0.999422
0.999485
0.999384
0.999648
0.999997
1.0002
1.00057
1.00077
1.00048
1.00047
1.00089
1.00049
1.00007
1.00107
1.00135
1.00022
1.00061
1.00245
1.00207
1.00107
1.00355
1.00453
1.00177
1.00235
1.00605
1.0043
1.0007
1.00494
1.00669
1.00238
0.993433
0.999584
0.998137
0.99357
0.997104
0.998851
0.996269
0.995683
0.998465
0.998375
0.997004
0.998673
1.00023
1.00004
0.999798
1.00047
1.00022
0.999331
0.999449
0.99961
0.99915
0.999111
0.999568
0.999659
0.999825
1.00043
1.00066
1.00057
1.00078
1.00075
1.00031
1.00052
1.00104
1.00064
1.00057
1.00137
1.00125
1.00074
1.00189
1.00352
1.00212
1.0018
1.00452
1.00412
1.0015
1.00346
1.00726
1.00227
1.0014
1.00822
0.99582
1.00019
0.99611
0.993148
0.997031
0.998652
0.995564
0.995481
0.998117
0.997735
0.99697
0.998577
1.00007
0.999715
0.999778
1.00055
1.0001
0.999391
0.999532
0.999441
0.998849
0.999028
0.999646
0.999743
1.00001
1.00063
1.00075
1.00054
1.00085
1.00085
1.00022
1.00038
1.00104
1.00068
1.00042
1.00153
1.0017
1.00087
1.00202
1.00367
1.00266
1.00192
1.00473
1.00482
1.00175
1.00347
1.00733
1.00426
1.00178
1.00545
1.00055
0.989421
0.994114
1.00177
0.996645
0.993154
0.997979
0.999099
0.995687
0.996671
0.999545
0.999365
0.998641
1.00064
1.00142
1.00011
0.999711
1.00007
0.999518
0.998803
0.999089
0.999351
0.999292
0.999698
1.00023
1.00045
1.00077
1.00086
1.0004
1.0004
1.00083
1.00042
1.00012
1.00104
1.00139
1.00032
1.00089
1.00285
1.00196
1.00103
1.00368
1.00492
1.0012
1.00217
1.00735
1.00408
0.999148
1.00721
1.01074
0.998718
0.994324
0.993505
0.995819
0.997741
0.995465
0.99553
0.997398
0.996759
0.996259
0.9976
0.998502
0.99858
0.999311
1.00067
1.00062
1.00015
1.00001
0.999703
0.998946
0.998744
0.99894
0.998996
0.999278
0.999993
1.00048
1.00069
1.00094
1.00106
1.00064
1.00034
1.00061
1.00067
1.00031
1.00073
1.00133
1.00108
1.00096
1.0024
1.00276
1.00214
1.0028
1.00439
1.00339
1.00261
1.00487
1.00555
1.00264
1.00487
1.00813
1.00848
0.993046
1.00724
0.99721
0.990131
0.997654
1.00016
0.995092
0.994842
0.99899
0.998276
0.996474
0.998863
1.00095
1.00018
1.00031
1.00143
1.00069
0.999186
0.999122
0.999105
0.998369
0.998545
0.999425
0.999817
1.00026
1.00105
1.00095
1.00066
1.001
1.00067
0.999749
1.00033
1.0012
1.00027
1.00012
1.00206
1.00195
1.00029
1.00237
1.00489
1.00176
1.00098
1.00629
1.00563
0.998729
1.0045
1.0118
1.0008
0.9965
1.02304

VECTORS velocity double
-4.62413e-07 -1.5957e-07 0
4.5923e-07 2.6975e-06 0
-5.36454e-07 1.94741e-06 0
-5.17788e-06 1.61234e-06 0
1.14093e-06 -1.26253e-07 0
-5.70424e-08 2.30318e-06 0
-4.60123e-06 2.64319e-06 0
-2.53822e-06 -8.06806e-07 0
2.45401e-07 3.76224e-07 0
-6.58137e-06 2.99994e-06 0
-5.14104e-06 -3.04999e-06 0
2.28635e-06 1.82368e-06 0
-1.61157e-06 4.0871e-06 0
-7.6455e-06 -4.03531e-06 0
2.69311e-06 -3.37576e-06 0
2.60039e-06 5.00375e-06 0
-6.7525e-06 -8.99174e-07 0
-1.35623e-06 -3.55685e-06 0
3.14904e-06 -3.38333e-07 0
-6.70326e-06 1.98058e-06 0
-3.97761e-06 1.03685e-06 0
4.56972e-06 6.93664e-07 0
-8.12587e-07 -2.40765e-06 0
-4.41772e-06 2.49515e-06 0
3.07465e-06 2.31932e-06 0
2.51245e-06 -2.39077e-06 0
-4.71021e-06 -2.54698e-06 0
-7.85552e-07 2.51861e-06 0
3.46741e-06 -5.95668e-07 0
-4.72115e-06 -1.3416e-06 0
-6.75808e-06 -1.64412e-06 0
2.24353e-06 1.16727e-06 0
-1.72495e-06 3.1812e-06 0
-6.20172e-06 4.25528e-07 0
2.403e-06 -3.5454e-06 0
2.73827e-06 3.85725e-06 0
-6.26921e-06 3.13897e-06 0
-6.48531e-07 -3.48429e-06 0
2.98713e-06 -6.21281e-07 0
-3.89375e-06 2.58056e-06 0
-5.05487e-06 -3.03137e-06 0
1.28714e-06 3.12046e-07 0
-1.35253e-06 9.9574e-07 0
-3.72393e-06 -2.91504e-06 0
1.45437e-06 -2.00097e-06 0
1.9148e-06 -5.96934e-09 0
-4.08631e-06 -1.52046e-06 0
4.01976e-07 -2.0596e-06 0
1.85196e-06 -2.85479e-06 0
-2.36555e-07 1.10112e-09 0
1.04644e-06 5.86819e-06 0
-4.64281e-06 2.01542e-06 0
-1.50864e-06 6.47893e-06 0
2.38506e-06 5.3516e-06 0
-1.6277e-06 -1.51037e-06 0
-4.43041e-06 1.05247e-05 0
1.24001e-06 5.65943e-06 0
-1.77049e-06 -8.15475e-06 0
-4.73969e-07 5.19083e-06 0
2.34259e-06 1.11967e-05 0
-3.1831e-06 -1.19902e-05 0
-3.51743e-06 -2.48812e-06 0
6.01339e-06 1.51661e-05 0
7.13157e-07 -2.45703e-06 0
-6.59142e-06 -1.156e-05 0
3.35309e-06 1.05781e-05 0
6.56526e-06 2.75431e-06 0
-1.56147e-06 -7.36087e-06 0
2.21708e-06 1.68122e-06 0
4.99948e-06 1.74593e-06 0
8.02053e-08 -3.11059e-06 0
2.29846e-06 3.36788e-06 0
2.89685e-06 -2.3374e-06 0
-1.61296e-06 -3.74056e-07 0
1.18892e-06 2.70953e-06 0
1.961e-06 -1.3147e-06 0
-9.57765e-07 -2.06637e-06 0
2.48812e-06 2.43399e-06 0
3.14142e-06 -1.2616e-06 0
1.14525e-06 1.68401e-06 0
4.76481e-06 -2.19497e-06 0
2.58202e-06 2.07255e-07 0
-3.76348e-07 6.77862e-06 0
5.79048e-06 -3.31986e-06 0
2.51987e-06 -8.54181e-06 0
-5.73893e-06 1.12349e-05 0
4.39384e-07 1.4614e-06 0
4.10726e-06 -1.37873e-05 0
-3.86155e-06 3.05246e-06 0
-3.273e-06 1.07685e-05 0
7.58659e-07 -1.07593e-05 0
-1.84969e-06 -4.5525e-06 0
-2.07762e-06 8.28918e-06 0
3.3043e-07 -5.60597e-06 0
-5.79604e-06 -9.76064e-06 0
-1.98882e-06 1.95104e-06 0
1.9464e-06 -4.74674e-06 0
-2.01283e-06 -6.00297e-06 0
-5.404e-06 -1.42671e-06 0
8.04274e-07 -5.39912e-06 0
2.86395e-06 1.14392e-05 0
3.20235e-07 6.97462e-06 0
1.91729e-06 1.10474e-05 0
-1.22795e-06 1.03114e-05 0
-4.43892e-06 6.32435e-06 0
-3.84998e-06 8.79033e-06 0
3.32925e-06 9.05648e-06 0
-2.22502e-06 7.0286e-06 0
-8.52256e-06 -3.42968e-06 0
4.84597e-06 7.65673e-06 0
1.09433e-05 9.58686e-06 0
-7.07194e-06 -9.1301e-06 0
-1.46318e-06 -1.51202e-06 0
1.23973e-05 1.19664e-05 0
-5.22306e-07 -4.80193e-06 0
-8.05112e-06 -3.49754e-06 0
4.0915e-06 7.14513e-06 0
3.15556e-06 -5.57059e-07 0
-5.35461e-06 -2.33378e-06 0
9.54479e-08 4.90363e-06 0
4.32572e-06 -1.47613e-06 0
3.32665e-07 -1.41189e-06 0
1.06485e-06 2.93724e-06 0
3.42936e-06 -8.53919e-07 0
1.60622e-06 -2.76311e-06 0
1.98801e-06 2.82657e-06 0
3.63623e-06 1.37283e-06 0
7.55544e-07 -2.04015e-06 0
1.08307e-06 7.6756e-07 0
4.75138e-06 1.43664e-06 0
-1.42245e-07 -3.21487e-06 0
-4.68972e-06 1.5311e-06 0
3.90478e-06 -9.4057e-08 0
3.54831e-06 -4.88789e-06 0
-7.58084e-06 2.8683e-06 0