# vtk DataFile Version 4.0
SiwiRVisFile
ASCII
DATASET STRUCTURED_POINTS
DIMENSIONS 25 25 1
ORIGIN 0 0 0
SPACING 1 1 1
POINT_DATA 625

SCALARS flags double 1
LOOKUP_TABLE default
1
1
1
1
1
1
1
1
1
1
1
1
1
1
1
1
1
1
1
1
1
1
1
1
1
1
1
1
1
1
1
1
1
1
1
1
1
1
1
1
1
1
1
1
1
1
1
1
1
1
1
1
1
1
1
1
1
1
1
1
1
1
1
1
1
1
1
1
1
1
1
1
1
1
1
1
1
1
1
1
1
1
1
1
1
1
1
1
1
1
1
1
1
1
1
1
1
1
1
1
1
1
1
1
1
1
1
1
1
1
1
1
1
1
1
1
1
1
1
1
1
1
1
1
1
1
1
1
1
1
1
1
1
1
1
1
1
1
1
1
1
1
1
1
1
1
1
1
1
1
1
1
1
1
1
1
1
1
1
1
1
1
1
1
1
1
1
1
1
1
1
1
1
1
1
1
1
1
1
1
1
1
1
1
1
1
1
1
1
1
1
1
1
1
1
1
1
1
1
1
1
1
1
1
1
1
1
1
1
1
1
1
1
1
1
1
1
1
1
1
1
1
1
1
1
1
1
1
1
1
1
1
1
1
1
1
1
1
1
1
1
1
1
1
1
1
1
1
1
1
1
1
1
1
1
1
1
1
1
1
1
1
1
1
1
1
1
1
1
1
1
1
1
1
1
1
1
1
1
1
1
1
1
1
1
1
1
1
1
1
1
1
1
1
1
1
1
1
1
1
1
1
1
1
1
1
1
1
1
1
1
1
1
1
1
1
1
1
1
1
1
1
1
1
1
1
1
1
1
1
1
1
1
1
1
1
1
1
1
1
1
1
1
1
1
1
1
1
1
1
1
1
1
1
1
1
1
1
1
1
1
1
1
1
1
1
1
1
1
1
1
1
1
1
1
1
1
1
1
1
1
1
1
1
1
1
1
1
1
1
1
1
1
1
1
1
1
1
1
1
1
1
1
1
1
1
1
1
1
1
1
1
1
1
1
1
1
1
1
1
1
1
1
1
1
1
1
1
1
1
1
1
1
1
1
1
1
1
1
1
1
1
1
1
1
1
1
1
1
1
1
1
1
1
1
1
1
1
1
1
1
1
1
1
1
1
1
1
1
1
1
1
1
1
1
1
1
1
1
1
1
1
1
1
1
1
1
1
1
1
1
1
1
1
1
1
1
1
1
1
1
1
1
1
1
1
1
1
1
1
1
1
1
1
1
1
1
1
1
1
1
1
1
1
1
1
1
1
1
1
1
1
1
1
1
1
1
1
1
1
1
1
1
1
1
1
1
1
1
1
1
1
1
1
1
1
1
1
1
1
1
1
1
1
1
1
1
1
1
1
1
1
1
1
1
1
1
1
1
1
1
1
1
1
1
1
1
1
1
1
1
1
1
1
1
1
1
1
1
1
1
1
1
1
1
1
1
1
1
1
1
1
1
1
1
1
1
1
1
1
1
1
1
1
1

SCALARS density double 1
LOOKUP_TABLE default
0.999766
0.999795
0.999911
0.999791
0.999716
0.999946
0.999953
0.999676
0.999822
1.00013
0.999835
0.999659
1.00009
1.00009
0.99965
0.999879
1.00024
0.999842
0.999702
1.0002
1.0001
0.999671
1.00001
1.00028
0.999811
1.00007
0.999537
0.999709
1.00013
0.999818
0.999604
0.999936
1.00002
0.999752
0.999797
0.999997
0.999934
0.999845
0.999891
0.999946
0.999977
0.999928
0.999852
0.999978
1.00008
0.99991
0.999831
1.0001
1.00011
0.999791
0.999752
0.999947
0.999797
0.999755
0.999929
0.99984
0.999726
0.999971
0.99996
0.999679
0.999911
1.00012
0.999753
0.999762
1.00017
0.999944
0.999644
1.00009
1.00019
0.999662
0.999878
1.00034
0.999877
0.99963
1.00024
0.999617
1.00013
0.999926
0.999506
0.999829
1.00012
0.999792
0.999634
0.999985
1.00004
0.999755
0.999794
1.00003
0.999985
0.999798
0.999873
1.00004
0.99998
0.999844
0.999928
1.00005
1.00001
0.999895
0.999943
1.00006
1.00005
0.999495
0.999745
1.00003
0.999789
0.999722
1
0.999835
0.999719
1.00002
0.999924
0.999718
1.00001
1.00004
0.999708
0.999923
1.00016
0.999753
0.999756
1.00032
0.999999
0.999549
1.00015
1.00037
0.999608
0.999814
0.999411
0.999745
1.00013
0.999864
0.999574
0.999876
1.00011
0.999747
0.999641
1.00003
1.00008
0.999752
0.999794
1.0001
0.999954
0.999711
0.999955
1.00011
0.999878
0.999885
1.00009
0.999988
0.999917
1.00005
0.999245
1.00022
0.999765
1
0.999911
1.00009
0.999555
0.999682
1.00006
0.999835
0.999814
1.00003
0.999866
0.999827
1.00007
0.999898
0.999713
1
1
1
0.999988
1.00046
0.999761
0.999569
1.00045
0.999692
0.999742
0.99945
1
0.999763
0.999945
0.999719
0.999481
0.999903
1.00017
0.999817
0.999712
1.0001
1.00009
0.999652
0.999828
1.00018
1
1
1
1.00008
0.999708
1.00014
1.00021
0.999734
0.999929
0.998553
0.999317
1
0.999525
0.999102
1.00006
0.999986
1
0.999937
1.00007
0.999875
0.999882
0.999948
0.999856
1.00001
0.999993
1
1
1
0.999969
0.999504
1.0003
1.0005
0.999526
0.998938
0.999587
0.999624
1
0.999706
0.999611
0.999419
0.999632
0.999734
0.999723
0.999983
1.00014
0.99977
0.99976
1.00023
0.999955
0.999538
1.00022
1.0004
0.999556
1.00002
1.00065
0.999718
0.99962
1.0006
0.99887
1.00033
0.999305
0.998114
0.999537
1.00029
0.999108
0.999145
1.00021
0.999968
0.999603
0.999874
1.00011
0.999998
0.999912
0.999828
0.999946
1.00023
1.00004
0.999604
1.00022
1.00051
0.999749
0.999576
1.0005
1.00003
0.998534
0.998876
1.00006
0.999105
0.998853
0.999796
1
0.999668
0.99967
1
0.999858
1.00002
1.00007
0.99966
1.00001
1.00044
0.999592
0.99966
1.0008
0.999989
0.999145
1.00064
1.00068
0.999012
0.999433
0.998133
0.999279
1.00029
0.998975
0.998319
0.999601
1.00016
0.998718
1
1.00025
1.00007
0.999727
0.999913
1.00011
1.00004
0.999891
0.999828
1.00009
1.00025
0.99991
0.999755
1.00018
1.00044
0.9998
0.998117
1.00068
0.999585
0.997687
0.999585
1.0004
0.998445
0.998832
0.999828
0.999982
0.999685
0.999988
0.999991
0.999866
1.0002
0.999876
0.999508
1.00055
1.00036
0.998933
1.00023
1.0013
0.999069
0.999054
1.00157
0.999368
0.999908
0.998925
0.998566
0.999447
0.999716
0.998866
0.998823
0.999891
1.00003
0.999561
0.999815
1.00027
0.999955
0.999676
1.00003
1.00016
0.999946
0.999798
1.0001
1.00003
0.999996
1.00027
0.999814
0.999701
1.00054
0.996906
0.998791
1.00135
0.998478
0.997421
1.00053
1
0.999412
0.999337
1.00021
0.999997
0.99975
1.00009
0.999863
0.99997
1.00033
0.999366
0.999631
1.00144
0.999625
0.998326
1.00137
1.00138
0.997896
0.998198
0.999075
0.999595
0.9989
0.99902
0.999148
0.998894
1
0.999701
0.999832
1.00007
1
0.999629
1.00004
1.0003
0.999658
0.999666
1.00026
1.00016
0.999445
1.00027
1.00064
0.999131
0.999963
1.00146
0.997592
1.00213
0.999304
0.996217
0.999964
1.00124
0.997233
1
1.00048
1.00013
0.9991
1.00012
1.00043
0.999601
0.999791
1.00021
0.999693
1.00011
1
0.998106
1.00052
1.00225
0.998431
0.998116
1.00256
1.00092
0.997519
0.998101
1.00058
0.998742
0.997916
0.999925
1
0.999779
0.999968
0.999836
0.999914
1.00013
0.99988
0.999545
1.00021
1.00016
0.999554
1
1.00139
0.999238
0.998386
1.00209
1.00101
0.996904
1.00001
0.995193
0.998861
1.00199
0.998121
0.996941
1.00059
1
0.99914
0.999474
1.00079
0.999646
0.999255
1.00063
1.00028
0.999025
1
1
1
1.00155
0.99967
0.997626
1.00167
1.00233
0.997366
0.995088
1.00221
1.00004
0.995162
0.999353
1.00117
0.997919
0.998521
1.00055
1.00002
0.999841
0.99991
0.999893
0.999651
1.00042
1.00007
1
1
1
1
1
1
1
0.998688
1.00665
0.999017
1.00228
0.997648
0.995687
0.999625
1.00054
0.997984
0.999117
1.00074
0.999788
0.998924
1.00028
1.00092
0.998899
0.999327
1.00145
1
1
1
1
1.00489
1.01073
1.00156
1.00143
1.0079
1.00237
0.98984
0.996717
1.00468
1
0.996445
1.00061
1.00054
0.998453
1.00021
1
0.999832
0.999838
1.00091
0.999073
0.998718
1.00229
0.997704
0.999157
1.0098
1.00583
0.995183
1.00577
1.01458
0.998493
0.993626
0.995888
1.00023
0.999223
0.99574
0.997993
0.999668
0.999059
1.00006
1.0021
1.00123
1.00691
1
1.0008
1.0012
0.998331
1
0.999484
1.00338
1.00616
1.00165
1.00078
1.0079
1.00703
1.00389
0.993914
1.0095
0.998643
0.991924
0.999684
1.00067
0.997062
0.998459
1.0013
1.00126
1.00307
1.00829
1.00219
0.994951
0.999796
1.0031
1.0009
1.00637
1.00567
0.995274
1.00257
1.01482
1.00047
0.992891
1.02409

VECTORS velocity double
-5.32057e-07 4.32813e-06 0
-0.00014229 8.22897e-05 0
-0.000261816 5.23844e-06 0
-0.000256794 -1.99023e-05 0
-0.000244086 2.23115e-05 0
-0.000435293 9.63601e-05 0
-0.000542442 -2.13553e-05 0
-0.000483094 -2.74248e-05 0
-0.000490397 4.3371e-05 0
-0.000595106 1.29255e-05 0
-0.000541341 -4.70082e-05 0
-0.000466699 -8.24965e-06 0
-0.000435396 -5.99657e-06 0
-0.000433792 -1.28432e-05 0
-0.00040589 1.16418e-06 0
-0.000395073 -1.25704e-05 0
-0.000355158 -1.18105e-05 0
-0.000385519 2.02167e-05 0
-0.000431899 2.94186e-05 0
-0.00036748 -7.12587e-05 0
-0.000229907 -2.62691e-06 0
-0.000248142 3.3191e-05 0
-0.000208567 -1.45455e-05 0
-9.45934e-05 -4.31431e-05 0
2.66619e-06 1.62456e-05 0
-8.72601e-05 0.000133659 0
-0.000398998 0.000349599 0
-0.000606734 8.66147e-05 0
-0.000766113 4.38754e-05 0
-0.00111651 0.000273253 0
-0.00136853 0.000241932 0
-0.0013172 -1.85477e-05 0
-0.00147179 6.14604e-05 0
-0.00171588 0.000147347 0
-0.00164963 -6.24498e-05 0
-0.00141206 -0.000156854 0
-0.00144606 -8.44296e-06 0
-0.00140301 -0.000100088 0
-0.00111451 -0.000144032 0
-0.00101114 3.24266e-05 0
-0.00121977 3.06491e-05 0
-0.0012098 -8.41762e-05 0
-0.00103879 2.25118e-06 0
-0.00104316 6.14387e-05 0
-0.00113422 -0.000188282 0
-0.000888367 -0.000229025 0
-0.000539069 -0.000110594 0
-0.000393783 -0.000121974 0
-0.000297979 -0.000264763 0
-7.37781e-05 -0.000119169 0
-0.000123514 0.000441235 0
-0.00032015 0.000524186 0
-0.000714543 0.000505887 0
-0.00141504 0.00046317 0
-0.00167867 0.000498056 0
-0.00165244 0.000275582 0
-0.00195954 0.000258567 0
-0.0024297 0.000304122 0
-0.00237697 7.78478e-05 0
-0.00227093 -0.000135073 0
-0.00232822 -0.000226463 0
-0.00209206 -0.000222292 0
-0.00174426 -0.000277799 0
-0.0017248 -0.000255164 0
-0.00162535 -4.06419e-05 0
-0.00140863 5.98232e-05 0
-0.00148614 -1.64074e-05 0
-0.0016812 -5.76889e-05 0
-0.00145613 -7.86552e-05 0
-0.0012643 -0.000161932 0
-0.00128266 -0.000449416 0
-0.000990671 -0.000526667 0
-0.000442752 -0.000304356 0
-0.000218953 -0.000310982 0
-8.26163e-05 -0.000313138 0
6.19837e-05 0.000546456 0
-0.000442863 0.00102597 0
-0.00139528 0.0012373 0
-0.00181693 0.000847153 0
-0.00164917 0.000444206 0
-0.00187011 0.000550322 0
-0.00244023 0.000721942 0
-0.00276158 0.000543553 0
-0.00279814 2.38661e-05 0
-0.00290318 -0.000153236 0
-0.00284934 -0.000357672 0
-0.00240515 -0.000607115 0
-0.00199147 -0.000496808 0
-0.00190151 -0.000348214 0
-0.00171668 -0.00023814 0
-0.0014648 -3.79057e-05 0
-0.00151535 0.000148855 0
-0.00179795 -1.44589e-05 0
-0.00173197 -0.00029905 0
-0.00135601 -0.000397823 0
-0.0011576 -0.000550572 0
-0.0011223 -0.000900816 0
-0.00069546 -0.000899571 0
-0.000155342 -0.000630313 0
6.08648e-05 -0.000410418 0
-0.000156386 0.000684017 0
-0.00115753 0.00233091 0
-0.00174097 0.00155735 0
-0.00129765 0.000623658 0
-0.00125893 0.000539122 0
-0.00199892 0.00125683 0
-0.00250576 0.00105321 0
-0.00278244 0.000776618 0
-0.0032753 0.000334697 0
-0.00331616 -0.000329295 0
-0.00280373 -0.000755235 0
-0.00254762 -0.000905032 0
-0.00229424 -0.00086139 0
-0.00175683 -0.000662807 0
-0.00146068 -0.00037619 0
-0.00150994 -0.000123044 0
-0.00127081 0.000129479 0
-0.000998838 8.92746e-05 0
-0.00126493 -0.000206177 0
-0.00150182 -0.000768693 0
-0.00117822 -0.000693212 0
-0.000920219 -0.000899168 0
-0.000786742 -0.00128156 0
-0.000437069 -0.0011702 0
-4.07795e-05 -0.00030908 0
-0.000386844 0.0014929 0
-0.000955875 0.00293756 0
-0.000985676 0.00143463 0
-0.000749309 0.00017457 0
-0.000670767 0.00091466 0
-0.00110205 0.00194207 0
-0.00204066 0.00186711 0
-0.00320551 0.00130248 0
-0.0036713 0.000487628 0
-0.00326295 -0.000653461 0
-0.00265956 -0.00119455 0
-0.00241702 -0.00119428 0
-0.00214973 -0.00125659 0
-0.00168666 -0.00104423 0
-0.00118754 -0.000696542 0
-0.000813044 -0.000368886 0
-0.000577096 -6.56124e-05 0
-0.0004637 4.59818e-05 0
-0.000445103 -5.43457e-05 0
-0.000761657 -0.000499689 0
-0.00103096 -0.000914887 0
-0.000747481 -0.00140911 0
-0.000443766 -0.00138689 0
-0.000534461 -0.00142527 0
-0.000249075 -0.000818916 0
-0.000105714 0.00223703 0
-0.000165438 0.0025604 0
-4.15247e-05 0.00150707 0
0 0 0
-0.000186789 0.00131458 0
-0.000856134 0.00252486 0
-0.0020704 0.00335746 0
-0.00301511 0.0021031 0
-0.00280682 0.000134355 0
-0.00262982 -0.000996134 0
-0.00268592 -0.00152122 0
-0.00222741 -0.00162939 0
-0.00168303 -0.00155488 0
-0.00158817 -0.00141272 0
-0.00126929 -0.00124952 0
-0.000650735 -0.000754194 0
-0.000150448 -0.000395608 0
0 0 0
0 0 0
0 0 0
-0.000483292 -0.000605624 0
-0.000792737 -0.00177062 0
-0.000298712 -0.00151249 0
-5.54045e-05 -0.001152 0
-2.37048e-05 -0.00113693 0
0.000408588 0.00180033 0
0.000224595 0.00306928 0
-0.000149727 0.00144 0
0 0 0
-0.000101226 0.00165286 0
-0.00103022 0.00378659 0
-0.00178594 0.0039362 0
-0.00169058 0.00231634 0
-0.00145152 -6.47086e-05 0
-0.00144269 -0.00108893 0
-0.00162405 -0.00151636 0
-0.00177948 -0.00180565 0
-0.00187613 -0.00170146 0
-0.00174792 -0.00180847 0
-0.00122681 -0.00165644 0
-0.000610593 -0.00130182 0
-0.000119125 -0.000825558 0
0 0 0
0 0 0
0 0 0
-4.72531e-05 -0.000412087 0
-0.000428658 -0.00133926 0
-0.00048141 -0.00230251 0
0.000124602 -0.00178623 0
0.00028138 -0.000885112 0
-0.000224699 0.00150363 0
-0.000348419 0.0037139 0
-8.03469e-05 0.0010958 0
0 0 0
-0.00011406 0.00197372 0
-0.00066659 0.00504901 0
-0.000733372 0.0035393 0
-0.00021983 0.00168461 0
0 0 0
-0.000434007 -0.000620161 0
-0.00121315 -0.00102064 0
-0.00194907 -0.00146921 0
-0.00211919 -0.0018081 0
-0.00152833 -0.00221356 0
-0.00120399 -0.00194008 0
-0.00134618 -0.00191288 0
-0.000649856 -0.00136703 0
0 0 0
0 0 0
0 0 0
8.89054e-05 -0.00024658 0
0.000188898 -0.000938367 0
-8.06408e-05 -0.0021958 0
-0.0004527 -0.00208177 0
-0.000213306 -0.000615597 0
-0.000282275 0.00227233 0
-5.88971e-05 0.0028812 0
0.000252356 0.0011679 0
0 0 0
-0.00081299 0.00281438 0
-0.00172767 0.00480626 0
-0.00147688 0.00361078 0
-0.00108428 0.00126069 0
-0.000987 9.62119e-05 0
-0.0009982 -9.29062e-05 0
-0.0014811 -4.01754e-05 0
-0.00209406 -0.00114042 0
-0.00208311 -0.00204258 0
-0.00220078 -0.00228694 0
-0.00225655 -0.00218136 0
-0.00193375 -0.00222776 0
-0.00198049 -0.00147324 0
-0.00184015 -0.000782958 0
-0.00097871 -0.000265372 0
-0.000749479 -9.42145e-05 0
-0.0005601 -0.000403158 0
0.000116557 -0.00193862 0
0.00036282 -0.00148787 0
-0.000344619 -0.00156533 0
-0.000338454 -0.00162528 0
0.000306787 0.00225293 0
0.000627815 0.00226052 0
0.000294749 0.00172286 0
-0.00131319 0.00128545 0
-0.00209762 0.00371952 0
-0.00215412 0.00477264 0
-0.00259675 0.00381961 0
-0.00214179 0.000636581 0
-0.0011402 -0.000385793 0
-0.0015076 0.000373234 0
-0.00220585 0.000295217 0
-0.00165151 -0.00127288 0
-0.00151634 -0.00182463 0
-0.00260456 -0.0017819 0
-0.00321621 -0.00217068 0
-0.00298272 -0.00220251 0
-0.0032041 -0.00112676 0
-0.00369603 -0.00136278 0
-0.002897 -0.000864878 0
-0.00164586 -0.000688312 0
-0.00104406 -0.000550281 0
-0.00113338 -0.0022041 0
-0.000498417 -0.00164275 0
0.000344945 -0.00125402 0
0.000321453 -0.00148892 0
0.000442546 0.00113867 0
0.000126005 0.00352021 0
-0.000906014 0.00245721 0
-0.00142171 0.00216414 0
-0.00256715 0.00448514 0
-0.00366071 0.00552401 0
-0.0018167 0.00203611 0
0 0 0
-0.000912514 0.000126574 0
-0.000923086 0.000376444 0
0 0 0
-0.00103686 -0.000725582 0
-0.00252996 -0.000942045 0
-0.00271065 -0.00141067 0
-0.00281894 -0.0016716 0
-0.00396946 -0.00168126 0
-0.00421083 -0.00152546 0
-0.00357061 -0.00113941 0
-0.00383037 -0.00135099 0
-0.00362498 -0.00226235 0
-0.00192957 -0.00151065 0
-0.00146155 -0.00177776 0
-0.00136041 -0.00306227 0
-0.000318038 -0.0028071 0
0.000321933 -0.000754962 0
-0.000642157 0.00139827 0
-0.000806044 0.00384241 0
-0.000635247 0.00334769 0
-0.00247585 0.00343367 0
-0.00372701 0.00504478 0
-0.00208765 0.00430024 0
-0.000762111 0.000356292 0
-0.00184967 0.00035542 0
-0.0013137 -0.000196545 0
0 0 0
-0.000478451 0.000460717 0
-0.00161426 0.000575231 0
-0.00237888 -0.000231494 0
-0.00254363 -0.00123257 0
-0.00311224 -0.000919795 0
-0.00425067 -0.000917268 0
-0.00449184 -0.00172013 0
-0.00393568 -0.00124066 0
-0.00378724 -0.00143858 0
-0.00412641 -0.00247296 0
-0.00322607 -0.00273285 0
-0.0015621 -0.00258604 0
-0.00108596 -0.00258891 0
-0.00191277 -0.00310087 0
-0.000936078 -0.00145491 0
-0.000250397 0.00277504 0
-0.000345044 0.00248658 0
-0.000884114 0.00448161 0
-0.0028653 0.00615828 0
-0.00339548 0.00446535 0
-0.0031247 0.00273334 0
-0.00474234 0.00208762 0
-0.00485953 -2.53891e-05 0
-0.00323686 -0.00163517 0
-0.0030121 -0.000435786 0
-0.00314328 0.00130608 0
-0.0026954 0.000973796 0
-0.00200036 -0.000207921 0
-0.00284687 -0.000371527 0
-0.00368788 -0.000368096 0
-0.00309742 -0.00085407 0
-0.00363338 -0.000799939 0
-0.00514457 -0.00171224 0
-0.00418051 -0.0023432 0
-0.00332498 -0.00191288 0
-0.00402531 -0.00353511 0
-0.00344894 -0.00518427 0
-0.00113391 -0.00262487 0
-0.000574254 -0.00258774 0
-0.000194693 -0.00348628 0
0.000510668 0.00239409 0
-0.000565628 0.00399678 0
-0.00249694 0.00594016 0
-0.00244543 0.00625797 0
-0.00224278 0.00487076 0
-0.0036793 0.00412381 0
-0.00427689 0.00286164 0
-0.0047 -0.000416547 0
-0.00481587 -0.00222683 0
-0.00415081 -0.00101175 0
-0.00364379 0.000946583 0
-0.00287634 -1.99786e-06 0
-0.00235169 -0.000505938 0
-0.00240635 0.000173791 0
-0.00251738 -0.00018924 0
-0.00271141 -0.000721834 0
-0.00351166 0.000314238 0
-0.00451853 -0.00143301 0
-0.00449485 -0.00239151 0
-0.00358018 -0.0030643 0
-0.00275676 -0.00303502 0
-0.0039014 -0.00499362 0
-0.00286243 -0.00521451 0
-0.000257036 -0.00413248 0
0.000877948 -0.00248992 0
-3.93825e-05 0.00166969 0
-0.00138377 0.00709818 0
-0.00220249 0.00633629 0
-0.0016367 0.0047049 0
-0.00218535 0.00632965 0
-0.00334151 0.00583978 0
-0.00177098 0.000873062 0
0 0 0
-0.00174036 -0.00124296 0
-0.00283502 -0.0011625 0
-0.00132044 -0.000349161 0
-0.000909768 -0.000354773 0
-0.00160345 4.66423e-05 0
-0.00119719 -0.000268253 0
-0.0010495 2.75766e-05 0
-0.00279534 0.000623688 0
-0.00276054 4.85992e-05 0
-0.00145002 -0.00107812 0
-0.00359515 -0.000798732 0
-0.00590979 -0.00505049 0
-0.00362319 -0.0035616 0
-0.00282142 -0.00377868 0
-0.0033275 -0.00683852 0
-0.0029852 -0.00721363 0
-0.000441693 -0.00221293 0
-0.0015803 0.00404323 0
-0.00171332 0.00584629 0
-9.54591e-05 0.00608032 0
-0.00191575 0.00681106 0
-0.00263574 0.00580999 0
-0.00021212 0.00360519 0
0.000649931 0.000467019 0
0 0 0
0.00026267 -0.000375417 0
8.57253e-05 -0.00103829 0
-0.000183023 -0.00123147 0
0 0 0
-0.000185302 0.000215654 0
-0.000776043 -7.08343e-05 0
-0.00126891 0.000502297 0
-0.00117086 0.00108269 0
-0.000791443 -0.000702227 0
-0.00110767 -7.45497e-05 0
-0.00146894 0.000326627 0
-0.00333401 -0.00277408 0
-0.00475698 -0.00451779 0
-0.00369917 -0.00654614 0
-0.00175522 -0.00484345 0
-0.00399039 -0.00670424 0
-0.00198623 -0.00613738 0
0.000732345 0.00539823 0
0.000589699 0.00432151 0
-0.00182427 0.00750791 0
-0.00405154 0.00905677 0
-0.00297714 0.00415464 0
-0.00105366 0.00125432 0
-0.000241663 0.00125804 0
0 0 0
-0.000238134 -0.00041349 0
-0.000438087 -0.000928523 0
-0.00103659 -0.000588332 0
-0.000732453 -0.000283654 0
0.000208321 -0.000204434 0
-0.000281673 0.00106621 0
-0.000594465 0.000873095 0
0.00046672 -0.000127535 0
0.000157112 -0.000418929 0
-0.000648001 0.000300279 0
0 0 0
-0.000370527 0.000309581 0
-0.00334164 -0.00288984 0
-0.00674802 -0.00876222 0
-0.00335701 -0.00571826 0
-0.000390003 -0.00706284 0
0.00127957 -0.00802211 0
0.000871016 0.00292376 0
-0.0022516 0.00996127 0
-0.0059655 0.00982626 0
-0.00384748 0.00598693 0
-0.00214612 0.0037738 0
-0.00264094 0.00125158 0
-0.00128926 -0.00112694 0
0 0 0
-0.000536329 0.000537867 0
-0.000907476 -0.00103509 0
-0.00109745 -0.000392648 0
-0.00167472 -0.00067037 0
-0.00191124 -0.000339791 0
-0.000403295 3.27943e-05 0
0.000806298 0.000385958 0
0.000342051 0.000319593 0
2.39846e-05 0.000113123 0
3.58366e-05 -3.04281e-05 0
0 0 0
-0.000200709 0.000628114 0
0.000140717 -0.000150997 0
-0.00349761 -0.00416791 0
-0.00594626 -0.00973615 0
-0.00364948 -0.013246 0
0.0010274 -0.00539556 0
-0.00197918 0.0044734 0
-0.00471311 0.013808 0
-0.00389747 0.00920314 0
-0.00504645 0.00573932 0
-0.00926276 0.0046744 0
-0.00912622 0.000139547 0
-0.00363502 -0.00499896 0
0 0 0
-0.00157864 0.00186623 0
-0.00309123 -8.71319e-06 0
-0.00191349 -0.00140482 0
-0.000811476 -0.000105955 0
-0.00128863 -0.000127144 0
-0.0011902 -0.00136306 0
-0.000435404 -0.000940233 0
2.54361e-05 0.00145626 0
0 0 0
0 0 0
0 0 0
-0.000352141 6.38943e-05 0
0.0010041 0.000181593 0
6.19883e-05 -0.0002109 0
-0.00575789 -0.00591379 0
-0.0104128 -0.0166854 0
-0.00337721 -0.00953008 0
-0.0025567 0.011157 0
-0.00233015 0.00891639 0
-0.00144904 0.0102761 0
-0.00794536 0.0137015 0
-0.00847368 0.00309275 0
-0.00528837 -0.00247963 0
-0.00837385 -0.00625076 0
-0.00867563 -0.00249152 0
-0.00254309 -0.00059769 0
-0.00112956 0.00185752 0
-0.00383723 -0.00228751 0
-0.00323897 -0.000788016 0
-0.000767657 -0.00179691 0
-0.000260312 0.000113109 0
-0.00169869 -0.00113708 0
-0.00103069 9.22171e-05 0
0 0 0
0 0 0
0 0 0
0 0 0
0 0 0
0 0 0
0 0 0
-0.00451843 -0.0110009 0
-0.00396601 -0.0210827 0
0.00363279 0.00956413 0
-0.000983812 0.0132686 0
-0.0107692 0.0149899 0
-0.0103949 0.01383 0
-0.00513886 0.000842536 0
-0.00371614 -0.00167344 0
-0.0079246 -0.00209679 0
-0.0102839 -0.00515749 0
-0.00717095 -0.00408168 0
-0.00400532 0.00129718 0
-0.00256358 -0.00123925 0
-0.0019628 -0.00220702 0
-0.000274586 -0.00442155 0
0.00187992 0.000161124 0
0.00130353 0.00089661 0
-0.000139299 -0.00136617 0
0 0 0
0 0 0
0 0 0
0 0 0
-0.00441392 0.00339639 0
-0.010786 0.000192532 0
-0.00833548 -0.00183663 0
0.0034877 -0.0165746 0
0.00704799 -0.0174002 0
-0.00269922 0.00770404 0
-0.0133355 0.0293872 0
-0.0103126 0.0120807 0
0.000179808 0.00540137 0
0 0 0
-0.0017057 0.000363948 0
-0.00128307 0.000295073 0
-0.00277413 -0.00408429 0
-0.00561905 -0.00549938 0
-0.00270862 -0.00507372 0
0 0 0
0.000267617 -0.00456833 0
-0.0016378 -0.00260791 0
-0.00213005 -0.00397411 0
0.00206057 0.000954698 0
-0.00048222 0.00258582 0
-0.00425632 2.20502e-06 0
-0.00197187 -0.00203473 0
-6.89228e-05 0.00126068 0
-0.00704334 0.00554087 0
-0.00809164 0.00595294 0
-0.00416559 0.00186573 0
-0.00576008 -0.00460009 0
-0.00712899 -0.0313974 0
-0.00214098 -0.0101099 0
-0.00631375 0.0211393 0
-0.00709131 0.0230555 0
0.00593074 0.00237889 0
0.0161473 -1.85201e-05 0
0.015652 0.00403012 0
0.0120418 -0.000602255 0
0.015742 -0.000974894 0
0.0167605 -0.00102382 0
0.010225 -0.00159073 0
0.00570083 -0.00657986 0
0.0108541 -0.00379396 0
0.00791421 0.000738465 0
0 0 0
0.00226313 -0.00668513 0
0.00485808 -0.000104854 0
0.00208938 0.00716952 0
0 0 0
0.00322145 -0.00573839 0
0.00556203 0.00272924 0
0.00333967 0.00924589 0
0.00639896 0.000497246 0
0.0118614 0.00109854 0
0.00730814 0.000386795 0
-0.00615791 -0.0222522 0
-0.00592186 -0.0224641 0
0.0234875 0.0152656 0
0.0515413 0.00362889 0
0.0541455 -0.0019297 0
0.0489134 -0.00170652 0
0.052351 0.00382704 0
0.0560147 -0.00135711 0
0.0525472 -0.00111532 0
0.0511718 6.32756e-05 0
0.0532202 0.0011464 0
0.0520606 -0.00201044 0
0.0435127 -0.00380262 0
0.0438482 0.00384246 0
0.0495051 -0.000303581 0
0.0440798 -0.00360088 0
0.0384883 -0.000266122 0
0.0440661 0.00387876 0
0.0497477 -0.000151083 0
0.0438492 -0.00382547 0
0.0402666 0.00157369 0
0.0486907 0.00400376 0
0.0522003 -0.00201873 0
0.0479698 -0.000608488 0
0.0525692 0.00360041 0
0.0523688 -0.00373052 0
0.0240833 -0.0156401 0


