# vtk DataFile Version 4.0
SiwiRVisFile
ASCII
DATASET STRUCTURED_POINTS
DIMENSIONS 25 25 1
ORIGIN 0 0 0
SPACING 1 1 1
POINT_DATA 625

SCALARS flags double 1
LOOKUP_TABLE default
1
1
1
1
1
1
1
1
1
1
1
1
1
1
1
1
1
1
1
1
1
1
1
1
1
1
1
1
1
1
1
1
1
1
1
1
1
1
1
1
1
1
1
1
1
1
1
1
1
1
1
1
1
1
1
1
1
1
1
1
1
1
1
1
1
1
1
1
1
1
1
1
1
1
1
1
1
1
1
1
1
1
1
1
1
1
1
1
1
1
1
1
1
1
1
1
1
1
1
1
1
1
1
1
1
1
1
1
1
1
1
1
1
1
1
1
1
1
1
1
1
1
1
1
1
1
1
1
1
1
1
1
1
1
1
1
1
1
1
1
1
1
1
1
1
1
1
1
1
1
1
1
1
1
1
1
1
1
1
1
1
1
1
1
1
1
1
1
1
1
1
1
1
1
1
1
1
1
1
1
1
1
1
1
1
1
1
1
1
1
1
1
1
1
1
1
1
1
1
1
1
1
1
1
1
1
1
1
1
1
1
1
1
1
1
1
1
1
1
1
1
1
1
1
1
1
1
1
1
1
1
1
1
1
1
1
1
1
1
1
1
1
1
1
1
1
1
1
1
1
1
1
1
1
1
1
1
1
1
1
1
1
1
1
1
1
1
1
1
1
1
1
1
1
1
1
1
1
1
1
1
1
1
1
1
1
1
1
1
1
1
1
1
1
1
1
1
1
1
1
1
1
1
1
1
1
1
1
1
1
1
1
1
1
1
1
1
1
1
1
1
1
1
1
1
1
1
1
1
1
1
1
1
1
1
1
1
1
1
1
1
1
1
1
1
1
1
1
1
1
1
1
1
1
1
1
1
1
1
1
1
1
1
1
1
1
1
1
1
1
1
1
1
1
1
1
1
1
1
1
1
1
1
1
1
1
1
1
1
1
1
1
1
1
1
1
1
1
1
1
1
1
1
1
1
1
1
1
1
1
1
1
1
1
1
1
1
1
1
1
1
1
1
1
1
1
1
1
1
1
1
1
1
1
1
1
1
1
1
1
1
1
1
1
1
1
1
1
1
1
1
1
1
1
1
1
1
1
1
1
1
1
1
1
1
1
1
1
1
1
1
1
1
1
1
1
1
1
1
1
1
1
1
1
1
1
1
1
1
1
1
1
1
1
1
1
1
1
1
1
1
1
1
1
1
1
1
1
1
1
1
1
1
1
1
1
1
1
1
1
1
1
1
1
1
1
1
1
1
1
1
1
1
1
1
1
1
1
1
1
1
1
1
1
1
1
1
1
1
1
1
1
1
1
1
1
1
1
1
1
1
1
1
1
1
1
1
1
1
1
1
1
1
1
1
1
1
1
1
1
1
1
1
1
1
1
1
1
1
1
1
1
1
1
1
1
1
1
1
1
1
1
1
1
1
1
1
1
1
1
1
1
1
1
1
1
1
1
1
1
1
1
1
1
1

SCALARS density double 1
LOOKUP_TABLE default
0.999744
0.999772
0.999886
0.999767
0.999693
0.999922
0.999928
0.999653
0.999799
1.0001
0.999814
0.999639
1.00007
1.00007
0.999636
0.999866
1.00023
0.999835
0.999696
1.0002
1.0001
0.999673
1.00001
1.00029
0.999817
1.00005
0.999512
0.999686
1.0001
0.999794
0.99958
0.999913
1
0.999729
0.999776
0.999976
0.999914
0.999828
0.999874
0.999931
0.999965
0.999918
0.999843
0.999973
1.00008
0.999909
0.999832
1.0001
1.00011
0.999795
0.999728
0.999924
0.999776
0.999732
0.999905
0.999817
0.999704
0.999948
0.999938
0.999659
0.999891
1.0001
0.999736
0.999746
1.00016
0.999932
0.999634
1.00008
1.00018
0.99966
0.999879
1.00035
0.999882
0.999635
1.00025
0.999595
1.00011
0.999904
0.999483
0.999807
1.00009
0.999769
0.999612
0.999964
1.00002
0.999736
0.999776
1.00002
0.99997
0.999786
0.999861
1.00003
0.999975
0.99984
0.999925
1.00006
1.00001
0.999899
0.99995
1.00007
1.00003
0.999473
0.999723
1.00001
0.999769
0.9997
0.999979
0.999816
0.999699
1
0.999907
0.999702
0.999997
1.00003
0.999696
0.999913
1.00015
0.999747
0.999753
1.00032
1
0.999553
1.00016
1.00037
0.999616
0.999793
0.999389
0.999725
1.00011
0.999843
0.999555
0.999858
1.00009
0.999728
0.999624
1.00002
1.00007
0.99974
0.999781
1.00009
0.999945
0.999703
0.999949
1.00011
0.999881
0.999889
1.0001
0.999998
0.999926
1.00006
0.999225
1.0002
0.999746
1
0.999892
1.00008
0.999537
0.999663
1.00004
0.99982
0.9998
1.00002
0.999854
0.999817
1.00007
0.999891
0.999705
1
1
1
0.999997
1.00047
0.999773
0.99958
1.00046
0.999674
0.999723
0.999429
1
0.999747
0.999927
0.9997
0.999464
0.999888
1.00016
0.999806
0.999702
1.00009
1.00008
0.999647
0.999822
1.00017
1
1
1
1.00009
0.999722
1.00015
1.00022
0.999749
0.999911
0.998533
0.999299
1
0.999508
0.999084
1.00004
0.99997
1
0.999926
1.00006
0.999867
0.999875
0.999943
0.999852
1.00001
0.999993
1
1
1
0.999986
0.999518
1.00032
1.00051
0.999543
0.998919
0.99957
0.999608
1
0.999689
0.999595
0.999404
0.999616
0.999722
0.999717
0.999975
1.00013
0.999767
0.999757
1.00023
0.999957
0.999542
1.00023
1.00041
0.999572
1.00003
1.00066
0.999737
0.999636
1.00062
0.998853
1.00032
0.999287
0.998096
0.99952
1.00028
0.999092
0.999132
1.0002
0.999961
0.999598
0.999872
1.00011
0.999998
0.999915
0.999832
0.999952
1.00024
1.00005
0.999619
1.00023
1.00053
0.999769
0.999595
1.00052
1.00002
0.998517
0.998858
1.00004
0.99909
0.998838
0.99978
1
0.999663
0.999657
1
0.999859
1.00002
1.00008
0.999665
1.00001
1.00044
0.999606
0.999672
1.00081
1.00001
0.999164
1.00066
1.0007
0.999037
0.999417
0.998117
0.999263
1.00028
0.99896
0.998303
0.999587
1.00015
0.998707
1
1.00025
1.00007
0.999732
0.999918
1.00012
1.00005
0.999903
0.999841
1.00011
1.00027
0.99993
0.999776
1.00021
1.00046
0.999824
0.998102
1.00066
0.999569
0.997671
0.99957
1.00039
0.998434
0.998822
0.999819
0.99998
0.999687
0.999992
0.999996
0.999872
1.00021
0.999889
0.99952
1.00056
1.00038
0.998955
1.00025
1.00133
0.999099
0.999077
1.00159
0.999353
0.999892
0.99891
0.998552
0.999432
0.999702
0.998854
0.998814
0.999888
1.00003
0.999564
0.999819
1.00027
0.999966
0.999687
1.00004
1.00018
0.999966
0.999817
1.00012
1.00006
1.00002
1.00029
0.999844
0.99973
1.00052
0.996891
0.998776
1.00134
0.998463
0.997409
1.00051
1
0.999414
0.999337
1.00021
1
0.99976
1.0001
0.999874
0.999983
1.00034
0.999386
0.999649
1.00146
0.999657
0.998354
1.00139
1.00142
0.997933
0.998183
0.99906
0.99958
0.998886
0.999006
0.999134
0.99888
1
0.999703
0.999837
1.00007
1
0.999641
1.00005
1.00032
0.999676
0.999681
1.00027
1.00019
0.999474
1.00029
1.00067
0.999168
0.999992
1.00149
0.997578
1.00211
0.999289
0.996204
0.999951
1.00123
0.99722
1
1.00048
1.00014
0.999105
1.00012
1.00044
0.999614
0.999805
1.00023
0.99971
1.00013
1
0.998139
1.00055
1.00228
0.998473
0.99815
1.00259
1.0009
0.997505
0.998087
1.00056
0.998729
0.997904
0.999913
1
0.999784
0.999971
0.999843
0.999925
1.00014
0.999893
0.99956
1.00023
1.00018
0.999573
1
1.00142
0.999282
0.99842
1.00211
1.00105
0.996951
0.99999
0.99518
0.998848
1.00198
0.998109
0.996932
1.00058
1
0.999143
0.999479
1.0008
0.999656
0.999266
1.00065
1.0003
0.999041
1
1
1
1.00158
0.99971
0.997664
1.00171
1.00237
0.997416
0.995075
1.0022
1.00002
0.995151
0.999343
1.00116
0.997914
0.998519
1.00055
1.00002
0.999848
0.99992
0.999908
0.999667
1.00044
1.00009
1
1
1
1
1
1
1
0.998721
1.00669
0.999005
1.00227
0.997634
0.995677
0.999616
1.00053
0.99798
0.999115
1.00074
0.999792
0.998932
1.00029
1.00094
0.998916
0.999346
1.00146
1
1
1
1
1.00491
1.01074
1.00159
1.00145
1.00791
1.00235
0.989827
0.996706
1.00466
1
0.99644
1.00061
1.00053
0.998455
1.00021
1
0.999846
0.99985
1.00093
0.999095
0.99874
1.00231
0.997719
0.999191
1.00982
1.00584
0.995207
1.00581
1.0146
0.99851
0.993613
0.995877
1.00022
0.99921
0.995732
0.997988
0.999665
0.999057
1.00006
1.0021
1.00124
1.00691
1
1.00082
1.00122
0.998354
1
0.999514
1.0034
1.00618
1.00169
1.00081
1.00792
1.00705
1.00392
0.993904
1.00949
0.99863
0.991913
0.999677
1.00067
0.997059
0.998457
1.0013
1.00126
1.00308
1.00829
1.00219
0.994973
0.999819
1.00312
1.00094
1.0064
1.00569
0.995297
1.0026
1.01484
1.00048
0.992922
1.02411

VECTORS velocity double
-1.21582e-07 4.71012e-06 0
-0.000143056 8.39829e-05 0
-0.00026448 6.12769e-06 0
-0.000260553 -1.87196e-05 0
-0.000248332 2.29021e-05 0
-0.000440604 9.80637e-05 0
-0.000549511 -2.01972e-05 0
-0.000490698 -2.6466e-05 0
-0.000497947 4.4301e-05 0
-0.000603113 1.42832e-05 0
-0.000548909 -4.65917e-05 0
-0.000473136 -7.17439e-06 0
-0.000441781 -4.66091e-06 0
-0.000439728 -1.19257e-05 0
-0.00041044 2.11273e-06 0
-0.000399204 -1.06677e-05 0
-0.000359279 -1.02381e-05 0
-0.000389179 2.22134e-05 0
-0.000434859 3.14975e-05 0
-0.000369448 -6.84755e-05 0
-0.000231239 7.4394e-07 0
-0.000249668 3.74233e-05 0
-0.000210118 -1.04804e-05 0
-9.60962e-05 -3.84989e-05 0
1.69974e-06 1.9905e-05 0
-8.75827e-05 0.000135787 0
-0.000401803 0.000355405 0
-0.000612599 9.10111e-05 0
-0.000773875 4.78112e-05 0
-0.00112708 0.000277568 0
-0.00138153 0.000247053 0
-0.00133116 -1.40971e-05 0
-0.00148749 6.56597e-05 0
-0.00173278 0.000150769 0
-0.00166574 -5.9257e-05 0
-0.001427 -0.000154804 0
-0.00145966 -5.8324e-06 0
-0.00141377 -9.7671e-05 0
-0.00112265 -0.000141764 0
-0.00101842 3.51767e-05 0
-0.00122646 3.43706e-05 0
-0.00121541 -8.10708e-05 0
-0.00104281 4.81424e-06 0
-0.00104627 6.38426e-05 0
-0.00113676 -0.000186872 0
-0.000889503 -0.000227449 0
-0.000539561 -0.000108128 0
-0.000394878 -0.000120126 0
-0.00030005 -0.000263072 0
-7.49988e-05 -0.000120228 0
-0.00012382 0.000446021 0
-0.000322283 0.000533565 0
-0.000719955 0.000515222 0
-0.0014237 0.00047038 0
-0.00169026 0.000507216 0
-0.00166649 0.000283384 0
-0.00197521 0.000266429 0
-0.00244767 0.000311834 0
-0.00239603 8.31343e-05 0
-0.00228871 -0.00013165 0
-0.00234389 -0.000223852 0
-0.00210511 -0.000220447 0
-0.00175365 -0.000276582 0
-0.00173201 -0.000251535 0
-0.00163168 -3.58883e-05 0
-0.00141219 6.47714e-05 0
-0.00148783 -1.01548e-05 0
-0.00168181 -5.2748e-05 0
-0.00145507 -7.18428e-05 0
-0.00126266 -0.000155141 0
-0.00128124 -0.000440849 0
-0.000989537 -0.000516367 0
-0.000441709 -0.000292346 0
-0.000219253 -0.000299501 0
-8.35136e-05 -0.000306702 0
6.22377e-05 0.000552864 0
-0.000446777 0.00104057 0
-0.0014057 0.00125161 0
-0.00182948 0.000857964 0
-0.00166055 0.00045573 0
-0.0018834 0.000563116 0
-0.00245802 0.000734396 0
-0.00278193 0.000554787 0
-0.00281875 3.11572e-05 0
-0.00292338 -0.000148456 0
-0.00286727 -0.000355914 0
-0.00241937 -0.000605984 0
-0.002003 -0.000495386 0
-0.00191008 -0.000344345 0
-0.0017219 -0.000233527 0
-0.0014689 -3.17117e-05 0
-0.00152064 0.000155656 0
-0.00180284 -9.44815e-06 0
-0.00173299 -0.000294375 0
-0.0013526 -0.00039191 0
-0.00115263 -0.000543286 0
-0.00111906 -0.000892048 0
-0.000694145 -0.000889538 0
-0.000155438 -0.000620459 0
6.02297e-05 -0.000408037 0
-0.000157746 0.000693277 0
-0.00116651 0.00235554 0
-0.00175637 0.00157539 0
-0.00131235 0.00063481 0
-0.00127111 0.000550104 0
-0.00201297 0.00127556 0
-0.00252349 0.0010701 0
-0.00280202 0.000791056 0
-0.00329589 0.00034358 0
-0.00333675 -0.000324109 0
-0.00282284 -0.000754779 0
-0.0025632 -0.000905502 0
-0.0023067 -0.00086005 0
-0.00176649 -0.000660289 0
-0.00146848 -0.000370245 0
-0.00152081 -0.000110072 0
-0.0012837 0.000139292 0
-0.00100901 9.70983e-05 0
-0.00127027 -0.000202718 0
-0.00150101 -0.000761261 0
-0.00117274 -0.000679604 0
-0.000915277 -0.000878625 0
-0.00078499 -0.00126095 0
-0.000437075 -0.00115016 0
-4.14615e-05 -0.000298034 0
-0.000388876 0.00150788 0
-0.000963577 0.00297012 0
-0.00100069 0.0014583 0
-0.000762104 0.000179485 0
-0.000676447 0.000926585 0
-0.00111033 0.00196566 0
-0.00205436 0.00188945 0
-0.00322411 0.00132121 0
-0.00369231 0.000499334 0
-0.00328134 -0.000648653 0
-0.00267567 -0.00119209 0
-0.00243175 -0.00119591 0
-0.00216199 -0.00125601 0
-0.00169808 -0.00104079 0
-0.00119773 -0.000688044 0
-0.000823029 -0.000352219 0
-0.000589695 -5.19596e-05 0
-0.000474332 4.89409e-05 0
-0.000449921 -5.56493e-05 0
-0.000761549 -0.000500161 0
-0.0010262 -0.000905231 0
-0.0007429 -0.00138863 0
-0.000441694 -0.00136637 0
-0.000534412 -0.00140652 0
-0.000249895 -0.000812282 0
-0.000106377 0.00225585 0
-0.000172367 0.00259916 0
-4.7699e-05 0.00153 0
0 0 0
-0.000188003 0.00132837 0
-0.000862699 0.0025536 0
-0.00208689 0.00339063 0
-0.00303771 0.0021244 0
-0.00282663 0.000145682 0
-0.00264435 -0.000993915 0
-0.00269884 -0.00151825 0
-0.00224202 -0.00163011 0
-0.00169571 -0.00155488 0
-0.00159762 -0.001408 0
-0.00127829 -0.00123769 0
-0.000661337 -0.000735061 0
-0.000156158 -0.000379766 0
0 0 0
0 0 0
0 0 0
-0.000481194 -0.000590554 0
-0.000789852 -0.00174233 0
-0.000298824 -0.00148172 0
-5.67363e-05 -0.00112462 0
-2.44763e-05 -0.0011228 0
0.000407357 0.00182142 0
0.000223788 0.00310969 0
-0.000149262 0.00145818 0
0 0 0
-0.000102468 0.00166967 0
-0.00103612 0.00382545 0
-0.00180027 0.00398131 0
-0.0017092 0.00233895 0
-0.00146384 -5.92846e-05 0
-0.0014504 -0.00108598 0
-0.00163245 -0.00151238 0
-0.00179109 -0.00180095 0
-0.00189012 -0.00170065 0
-0.00176033 -0.00180606 0
-0.00123658 -0.00164361 0
-0.000618001 -0.00128376 0
-0.000121497 -0.000816902 0
0 0 0
0 0 0
0 0 0
-4.66684e-05 -0.000400582 0
-0.000429161 -0.00131047 0
-0.000483804 -0.00226906 0
0.000122244 -0.00176065 0
0.00027998 -0.000874422 0
-0.000224136 0.00152467 0
-0.000346382 0.00375034 0
-7.88893e-05 0.00111544 0
0 0 0
-0.000113048 0.00199149 0
-0.000671748 0.00509985 0
-0.000748631 0.00358643 0
-0.000229147 0.0017019 0
0 0 0
-0.000438985 -0.000613411 0
-0.00122218 -0.00101281 0
-0.00195842 -0.0014604 0
-0.00213122 -0.00180424 0
-0.00154232 -0.00221094 0
-0.0012153 -0.00192661 0
-0.00135329 -0.00189527 0
-0.000651559 -0.00135904 0
0 0 0
0 0 0
0 0 0
8.37322e-05 -0.000226377 0
0.000179761 -0.000904587 0
-8.4704e-05 -0.00216205 0
-0.000453676 -0.00205402 0
-0.000213047 -0.000602192 0
-0.000281414 0.00228974 0
-5.70482e-05 0.0029176 0
0.00025334 0.00118823 0
0 0 0
-0.000824051 0.00284077 0
-0.00175197 0.00486552 0
-0.0014931 0.00365141 0
-0.00109165 0.00127593 0
-0.00099884 9.95285e-05 0
-0.0010096 -8.62298e-05 0
-0.00148979 -2.5181e-05 0
-0.0021044 -0.00113183 0
-0.00209499 -0.00203373 0
-0.00221693 -0.00228112 0
-0.00227109 -0.00217315 0
-0.00194324 -0.00221697 0
-0.00198527 -0.00146895 0
-0.00184726 -0.000784036 0
-0.00098722 -0.000267134 0
-0.000763481 -8.90246e-05 0
-0.000576639 -0.00037999 0
0.000103835 -0.001904 0
0.000356864 -0.00145591 0
-0.000348096 -0.00153367 0
-0.000339592 -0.00160836 0
0.000305856 0.00226815 0
0.000629158 0.00229478 0
0.000296785 0.00174231 0
-0.00132466 0.00129734 0
-0.00212197 0.00375796 0
-0.00217734 0.00482882 0
-0.00261674 0.00385439 0
-0.00215783 0.000644161 0
-0.00114845 -0.000383518 0
-0.00152061 0.000383722 0
-0.00221849 0.000303793 0
-0.0016566 -0.00126378 0
-0.00152509 -0.00180851 0
-0.00262181 -0.00177036 0
-0.00323388 -0.0021638 0
-0.00299866 -0.00219217 0
-0.0032159 -0.00111717 0
-0.00371048 -0.00135558 0
-0.00291237 -0.000857513 0
-0.00166648 -0.00067312 0
-0.00106294 -0.000531055 0
-0.0011469 -0.00217932 0
-0.000504821 -0.0016209 0
0.000338101 -0.00123172 0
0.00032189 -0.00148019 0
0.000442604 0.00115275 0
0.000126747 0.00355065 0
-0.000908453 0.00248124 0
-0.00143326 0.00219184 0
-0.00258777 0.00452808 0
-0.00367973 0.00557094 0
-0.00182344 0.00206761 0
0 0 0
-0.0009249 0.000138395 0
-0.000935955 0.000386512 0
0 0 0
-0.00104466 -0.000707632 0
-0.00254481 -0.000920398 0
-0.00272898 -0.00139621 0
-0.0028352 -0.00166436 0
-0.00398846 -0.00167471 0
-0.00422494 -0.0015213 0
-0.00358756 -0.00113456 0
-0.00384462 -0.00134149 0
-0.00364338 -0.0022472 0
-0.00194134 -0.00148991 0
-0.00147268 -0.00174943 0
-0.00136448 -0.00302606 0
-0.000323602 -0.00277047 0
0.000320942 -0.000734697 0
-0.000642516 0.00140994 0
-0.000806961 0.00387139 0
-0.000639532 0.00337897 0
-0.00248699 0.00346457 0
-0.00373849 0.00508462 0
-0.00208952 0.00433696 0
-0.000759871 0.000377543 0
-0.00185838 0.000366613 0
-0.00132212 -0.000184794 0
0 0 0
-0.000488426 0.000468703 0
-0.00163365 0.000595908 0
-0.00239268 -0.000206518 0
-0.00256126 -0.00121604 0
-0.00312609 -0.00090975 0
-0.00426994 -0.000908299 0
-0.00450459 -0.001713 0
-0.00395365 -0.00123049 0
-0.0037967 -0.00142642 0
-0.00414093 -0.00246202 0
-0.00323247 -0.00271796 0
-0.00157561 -0.0025719 0
-0.0010881 -0.00257486 0
-0.00191702 -0.00308482 0
-0.000930641 -0.00145552 0
-0.000252193 0.00278699 0
-0.000348563 0.00251451 0
-0.00088816 0.0045155 0
-0.00287239 0.00619068 0
-0.00340289 0.00449943 0
-0.00312917 0.00276777 0
-0.0047492 0.0021077 0
-0.00486435 -5.94996e-06 0
-0.00323851 -0.00163316 0
-0.00302248 -0.000428552 0
-0.00315767 0.00132303 0
-0.00271492 0.000996024 0
-0.00201507 -0.000185033 0
-0.00286212 -0.000357514 0
-0.0036962 -0.000360399 0
-0.00311328 -0.000847199 0
-0.00363916 -0.000795002 0
-0.00516052 -0.00170519 0
-0.00418502 -0.0023341 0
-0.00334048 -0.00189744 0
-0.00402577 -0.00350864 0
-0.00346065 -0.0051549 0
-0.00113236 -0.0025938 0
-0.000581886 -0.00255057 0
-0.000191271 -0.00345731 0
0.000509317 0.00240712 0
-0.00056944 0.0040237 0
-0.00250293 0.00597192 0
-0.002452 0.00629115 0
-0.00224992 0.00490045 0
-0.00368742 0.00415581 0
-0.00428735 0.00288321 0
-0.00470798 -0.000410157 0
-0.00481974 -0.00222309 0
-0.00416397 -0.000992081 0
-0.00366489 0.000962021 0
-0.00289713 1.86125e-05 0
-0.00235763 -0.000492728 0
-0.00241582 0.000188899 0
-0.00252229 -0.000177924 0
-0.00272474 -0.000714118 0
-0.00350996 0.000322036 0
-0.00453226 -0.00142429 0
-0.004491 -0.00238158 0
-0.00359598 -0.00305156 0
-0.00275259 -0.00302623 0
-0.00390934 -0.00498104 0
-0.00285601 -0.00519527 0
-0.000269911 -0.00412038 0
0.000885132 -0.00249128 0
-4.01258e-05 0.00168241 0
-0.00138655 0.00712638 0
-0.00220813 0.00636708 0
-0.00164128 0.00473678 0
-0.00219093 0.00636116 0
-0.00335115 0.00587025 0
-0.00177662 0.000893134 0
0 0 0
-0.00174487 -0.00123137 0
-0.00284523 -0.00113882 0
-0.00133375 -0.000329626 0
-0.000921403 -0.000346955 0
-0.00160335 5.52181e-05 0
-0.0012049 -0.000252053 0
-0.0010477 3.73398e-05 0
-0.00280599 0.000627326 0
-0.00276004 5.50161e-05 0
-0.00147099 -0.00107108 0
-0.00358844 -0.000787833 0
-0.00592342 -0.00503105 0
-0.00361565 -0.00354299 0
-0.00283279 -0.00375319 0
-0.00331695 -0.00680892 0
-0.00298534 -0.00718234 0
-0.000434538 -0.00219039 0
-0.00158156 0.00405487 0
-0.00171491 0.0058743 0
-9.83716e-05 0.00610996 0
-0.00192042 0.00683834 0
-0.00264053 0.00584138 0
-0.00021487 0.00363224 0
0.000648912 0.000479569 0
0 0 0
0.000262732 -0.00036026 0
8.15269e-05 -0.00101482 0
-0.00018668 -0.00121033 0
0 0 0
-0.000185875 0.000227173 0
-0.000784625 -5.76911e-05 0
-0.00126522 0.000513427 0
-0.00118286 0.00109232 0
-0.000791089 -0.000690609 0
-0.00113057 -6.28971e-05 0
-0.00147025 0.000330027 0
-0.00334703 -0.00277125 0
-0.00474177 -0.00450289 0
-0.00370444 -0.00652596 0
-0.00175108 -0.00482446 0
-0.0039829 -0.00666807 0
-0.00198743 -0.00612112 0
0.000731605 0.00540902 0
0.000589752 0.00434669 0
-0.00182369 0.00753714 0
-0.00405272 0.00908456 0
-0.0029794 0.00418208 0
-0.0010544 0.00127663 0
-0.000240328 0.00126607 0
0 0 0
-0.000237647 -0.0004025 0
-0.000439341 -0.000903456 0
-0.00103364 -0.000572528 0
-0.000737219 -0.000279166 0
0.000207441 -0.000194057 0
-0.000288939 0.00107676 0
-0.000594377 0.000884168 0
0.000450636 -0.000115422 0
0.000152413 -0.000403656 0
-0.000662785 0.000306112 0
0 0 0
-0.000376238 0.000313817 0
-0.00333417 -0.00287164 0
-0.00672924 -0.00874152 0
-0.00335889 -0.00571034 0
-0.000375909 -0.0070428 0
0.00127115 -0.00801112 0
0.000870366 0.00293273 0
-0.00225219 0.00998158 0
-0.0059622 0.00985191 0
-0.00384287 0.0060144 0
-0.002141 0.00379805 0
-0.002639 0.00127414 0
-0.00128754 -0.0011165 0
0 0 0
-0.000532893 0.000549949 0
-0.000908205 -0.00101155 0
-0.00108464 -0.000382715 0
-0.001675 -0.000662587 0
-0.00190493 -0.000331448 0
-0.00041081 4.65849e-05 0
0.000809031 0.000399102 0
0.000324383 0.000333186 0
2.44533e-05 0.000121375 0
2.84591e-05 -3.05658e-05 0
0 0 0
-0.000195208 0.000625702 0
0.00013331 -0.000150502 0
-0.00346035 -0.00414716 0
-0.00594869 -0.0096882 0
-0.00360224 -0.0131945 0
0.000993146 -0.00534713 0
-0.00197874 0.00448141 0
-0.00471391 0.0138237 0
-0.00389181 0.00922172 0
-0.00503911 0.00576065 0
-0.00924832 0.004698 0
-0.00912198 0.00015816 0
-0.00362885 -0.00499335 0
0 0 0
-0.00156953 0.00186909 0
-0.00309149 1.4908e-06 0
-0.00189476 -0.00139547 0
-0.000811742 -9.25646e-05 0
-0.00127207 -0.000117457 0
-0.00119352 -0.0013518 0
-0.000426454 -0.000917973 0
1.07265e-05 0.00147413 0
0 0 0
0 0 0
0 0 0
-0.000348114 6.38942e-05 0
0.000989736 0.000190569 0
0.000102039 -0.000221641 0
-0.00577907 -0.00590755 0
-0.0103535 -0.0166459 0
-0.00339527 -0.00952196 0
-0.00255385 0.0111618 0
-0.00233107 0.00892751 0
-0.00144282 0.0102887 0
-0.00794334 0.0137156 0
-0.00845704 0.00311623 0
-0.00527818 -0.00245528 0
-0.00835683 -0.00623362 0
-0.00867932 -0.00248519 0
-0.00253445 -0.000592187 0
-0.00113461 0.00186229 0
-0.00381683 -0.00228078 0
-0.00324054 -0.000781933 0
-0.000753596 -0.00178842 0
-0.000271754 0.000130406 0
-0.00169052 -0.00111625 0
-0.00103782 9.59971e-05 0
0 0 0
0 0 0
0 0 0
0 0 0
0 0 0
0 0 0
0 0 0
-0.00446731 -0.0109325 0
-0.00400656 -0.0210109 0
0.00363542 0.00956621 0
-0.000986985 0.0132765 0
-0.0107651 0.0149992 0
-0.0103992 0.0138362 0
-0.00512847 0.000849481 0
-0.0037066 -0.00165746 0
-0.0079023 -0.00208441 0
-0.0102788 -0.00515632 0
-0.0071594 -0.00408545 0
-0.00401 0.00129355 0
-0.00255502 -0.00123638 0
-0.00196848 -0.00219803 0
-0.000263633 -0.00440286 0
0.00186927 0.000174546 0
0.00130409 0.000911703 0
-0.000129652 -0.00134561 0
0 0 0
0 0 0
0 0 0
0 0 0
-0.00449806 0.0033941 0
-0.0107405 0.000217112 0
-0.00839222 -0.00180935 0
0.00348713 -0.0165182 0
0.00701176 -0.0173629 0
-0.00269577 0.0077049 0
-0.0133406 0.0293937 0
-0.0103127 0.0120901 0
0.000177028 0.00540823 0
0 0 0
-0.00170385 0.00037653 0
-0.00127057 0.000312585 0
-0.00276788 -0.00406989 0
-0.00561469 -0.00549277 0
-0.00270825 -0.00506847 0
0 0 0
0.000263587 -0.00456582 0
-0.00164417 -0.00260717 0
-0.00211864 -0.00395933 0
0.0020506 0.000986055 0
-0.000460864 0.00258101 0
-0.0042689 -2.10625e-05 0
-0.00193597 -0.00201625 0
-0.000136151 0.00127099 0
-0.00699941 0.00553316 0
-0.00813996 0.00597192 0
-0.00416504 0.0018573 0
-0.0058011 -0.00459061 0
-0.00715398 -0.0313819 0
-0.00213396 -0.0101056 0
-0.00631194 0.0211385 0
-0.00709589 0.0230573 0
0.00592997 0.00238162 0
0.0161451 -1.70526e-05 0
0.0156482 0.00402955 0
0.0120359 -0.000602585 0
0.0157407 -0.000972354 0
0.0167632 -0.00101986 0
0.0102262 -0.0015909 0
0.00570317 -0.00658187 0
0.0108422 -0.00380006 0
0.007924 0.000751164 0
0 0 0
0.00230268 -0.00668498 0
0.00482402 -0.000123821 0
0.00211457 0.00720944 0
0 0 0
0.00324652 -0.00573004 0
0.0055407 0.00272969 0
0.00334671 0.00922752 0
0.00637421 0.000489047 0
0.0118353 0.00109807 0
0.00731115 0.000403511 0
-0.0061937 -0.022244 0
-0.00592091 -0.0224164 0
0.0234874 0.0152691 0
0.0515395 0.003632 0
0.0541447 -0.00192573 0
0.0489116 -0.00170536 0
0.0523494 0.0038307 0
0.0560108 -0.00135366 0
0.0525444 -0.00110998 0
0.05117 6.89015e-05 0
0.0532221 0.00115433 0
0.05206 -0.00200707 0
0.0435141 -0.00379416 0
0.0438458 0.00383805 0
0.0495097 -0.000279749 0
0.044069 -0.00359582 0
0.0385039 -0.000245847 0
0.0440465 0.00379108 0
0.049767 -0.00015309 0
0.0438331 -0.0038309 0
0.0402753 0.00158606 0
0.0486902 0.00404468 0
0.0521871 -0.00200849 0
0.0479785 -0.000583486 0
0.0525433 0.00357134 0
0.0523779 -0.00372038 0
0.0242315 -0.0157345 0


