# vtk DataFile Version 4.0
SiwiRVisFile
ASCII
DATASET STRUCTURED_POINTS
DIMENSIONS 25 25 1
ORIGIN 0 0 0
SPACING 1 1 1
POINT_DATA 625

SCALARS flags double 1
LOOKUP_TABLE default
1
1
1
1
1
1
1
1
1
1
1
1
1
1
1
1
1
1
1
1
1
1
1
1
1
1
1
1
1
1
1
1
1
1
1
1
1
1
1
1
1
1
1
1
1
1
1
1
1
1
1
1
1
1
1
1
1
1
1
1
1
1
1
1
1
1
1
1
1
1
1
1
1
1
1
1
1
1
1
1
1
1
1
1
1
1
1
1
1
1
1
1
1
1
1
1
1
1
1
1
1
1
1
1
1
1
1
1
1
1
1
1
1
1
1
1
1
1
1
1
1
1
1
1
1
1
1
1
1
1
1
1
1
1
1
1
1
1
1
1
1
1
1
1
1
1
1
1
1
1
1
1
1
1
1
1
1
1
1
1
1
1
1
1
1
1
1
1
1
1
1
1
1
1
1
1
1
1
1
1
1
1
1
1
1
1
1
1
1
1
1
1
1
1
1
1
1
1
1
1
1
1
1
1
1
1
1
1
1
1
1
1
1
1
1
1
1
1
1
1
1
1
1
1
1
1
1
1
1
1
1
1
1
1
1
1
1
1
1
1
1
1
1
1
1
1
1
1
1
1
1
1
1
1
1
1
1
1
1
1
1
1
1
1
1
1
1
1
1
1
1
1
1
1
1
1
1
1
1
1
1
1
1
1
1
1
1
1
1
1
1
1
1
1
1
1
1
1
1
1
1
1
1
1
1
1
1
1
1
1
1
1
1
1
1
1
1
1
1
1
1
1
1
1
1
1
1
1
1
1
1
1
1
1
1
1
1
1
1
1
1
1
1
1
1
1
1
1
1
1
1
1
1
1
1
1
1
1
1
1
1
1
1
1
1
1
1
1
1
1
1
1
1
1
1
1
1
1
1
1
1
1
1
1
1
1
1
1
1
1
1
1
1
1
1
1
1
1
1
1
1
1
1
1
1
1
1
1
1
1
1
1
1
1
1
1
1
1
1
1
1
1
1
1
1
1
1
1
1
1
1
1
1
1
1
1
1
1
1
1
1
1
1
1
1
1
1
1
1
1
1
1
1
1
1
1
1
1
1
1
1
1
1
1
1
1
1
1
1
1
1
1
1
1
1
1
1
1
1
1
1
1
1
1
1
1
1
1
1
1
1
1
1
1
1
1
1
1
1
1
1
1
1
1
1
1
1
1
1
1
1
1
1
1
1
1
1
1
1
1
1
1
1
1
1
1
1
1
1
1
1
1
1
1
1
1
1
1
1
1
1
1
1
1
1
1
1
1
1
1
1
1
1
1
1
1
1
1
1
1
1
1
1
1
1
1
1
1
1
1
1
1
1
1
1
1
1
1
1
1
1
1
1
1
1
1
1
1
1
1
1
1
1
1
1
1
1
1
1
1
1
1
1
1
1
1
1
1
1
1
1
1
1
1
1
1
1
1
1
1
1
1
1
1
1

SCALARS density double 1
LOOKUP_TABLE default
0.99975
0.999779
0.999893
0.999773
0.999699
0.999929
0.999934
0.999659
0.999805
1.00011
0.999818
0.999643
1.00008
1.00007
0.999635
0.999863
1.00022
0.999828
0.999688
1.00019
1.00009
0.99966
0.999997
1.00027
0.999801
1.00006
0.999519
0.999692
1.00011
0.999801
0.999587
0.999919
1.00001
0.999735
0.999781
0.999979
0.999917
0.99983
0.999875
0.999929
0.999962
0.999914
0.999837
0.999964
1.00007
0.999897
0.999819
1.00009
1.0001
0.99978
0.999734
0.999929
0.999782
0.999739
0.999911
0.999823
0.99971
0.999954
0.999942
0.999663
0.999895
1.0001
0.999737
0.999746
1.00016
0.999929
0.99963
1.00007
1.00018
0.999651
0.999866
1.00033
0.999868
0.99962
1.00023
0.999601
1.00012
0.99991
0.999489
0.999813
1.0001
0.999776
0.999618
0.999969
1.00002
0.99974
0.999779
1.00002
0.99997
0.999785
0.999858
1.00003
0.999968
0.999832
0.999915
1.00004
0.999997
0.999885
0.999935
1.00005
1.00003
0.999479
0.999728
1.00002
0.999776
0.999706
0.999984
0.99982
0.999704
1
0.999909
0.999704
0.999999
1.00003
0.999695
0.99991
1.00015
0.999741
0.999745
1.00031
0.999991
0.999541
1.00014
1.00036
0.999602
0.999796
0.999393
0.99973
1.00012
0.99985
0.99956
0.999863
1.0001
0.999732
0.999627
1.00002
1.00007
0.99974
0.999781
1.00009
0.999943
0.999699
0.999943
1.0001
0.99987
0.999877
1.00008
0.999983
0.999911
1.00004
0.999228
1.0002
0.999749
1
0.999897
1.00008
0.999542
0.999668
1.00005
0.999823
0.999802
1.00002
0.999854
0.999817
1.00006
0.999887
0.999702
1
1
1
0.999983
1.00046
0.999759
0.999565
1.00045
0.999677
0.999725
0.99943
1
0.999752
0.999932
0.999703
0.999467
0.999891
1.00016
0.999807
0.999703
1.00009
1.00008
0.999645
0.999819
1.00017
1
1
1
1.00008
0.999708
1.00014
1.00021
0.999735
0.999913
0.998535
0.9993
1
0.999512
0.999088
1.00005
0.999973
1
0.999928
1.00006
0.999867
0.999875
0.999941
0.999849
1.00001
0.999988
1
1
1
0.999973
0.999505
1.0003
1.0005
0.999529
0.99892
0.999572
0.99961
1
0.999692
0.999598
0.999408
0.999619
0.999724
0.999718
0.999976
1.00013
0.999766
0.999756
1.00023
0.999952
0.999537
1.00022
1.0004
0.999562
1.00002
1.00065
0.999723
0.999622
1.0006
0.998854
1.00032
0.999289
0.998097
0.999522
1.00028
0.999096
0.999135
1.00021
0.999962
0.999597
0.99987
1.00011
0.999996
0.999911
0.999828
0.999947
1.00024
1.00004
0.99961
1.00022
1.00052
0.999757
0.999583
1.0005
1.00002
0.99852
0.998861
1.00004
0.999093
0.998841
0.999783
1
0.999664
0.999659
1
0.999859
1.00002
1.00007
0.999661
1.00001
1.00044
0.999598
0.999665
1.00081
0.999999
0.999153
1.00065
1.00069
0.999023
0.99942
0.998121
0.999267
1.00028
0.998965
0.998307
0.999589
1.00015
0.998711
1
1.00025
1.00007
0.999729
0.999915
1.00012
1.00004
0.999897
0.999835
1.0001
1.00026
0.999921
0.999766
1.00019
1.00045
0.999813
0.998107
1.00066
0.999575
0.997676
0.999575
1.00039
0.998438
0.998826
0.999821
0.99998
0.999686
0.99999
0.999993
0.99987
1.0002
0.999883
0.999514
1.00055
1.00037
0.998946
1.00024
1.00132
0.999087
0.999067
1.00158
0.99936
0.999899
0.998917
0.998558
0.999438
0.999709
0.99886
0.998817
0.999888
1.00003
0.999563
0.999817
1.00027
0.999961
0.999682
1.00003
1.00017
0.999958
0.999809
1.00011
1.00004
1.00001
1.00028
0.999833
0.999718
1.00053
0.9969
0.998784
1.00135
0.998472
0.997415
1.00052
1
0.999415
0.999338
1.00021
1
0.999755
1.0001
0.99987
0.999978
1.00034
0.999378
0.999642
1.00145
0.999646
0.998344
1.00138
1.00141
0.997921
0.998194
0.999071
0.99959
0.998896
0.999017
0.999144
0.998889
1
0.999705
0.999835
1.00007
1
0.999635
1.00004
1.00031
0.999669
0.999675
1.00027
1.00018
0.999463
1.00029
1.00066
0.999155
0.999983
1.00148
0.99759
1.00212
0.999302
0.996215
0.999962
1.00124
0.997232
1
1.00048
1.00014
0.999107
1.00013
1.00044
0.999611
0.9998
1.00022
0.999704
1.00012
1
0.998129
1.00054
1.00227
0.998462
0.998141
1.00259
1.00092
0.997517
0.998101
1.00058
0.998742
0.997917
0.999928
1
0.999783
0.999975
0.999843
0.999923
1.00014
0.999891
0.999555
1.00023
1.00017
0.999566
1
1.00141
0.99927
0.998409
1.00211
1.00104
0.996938
1.00001
0.995196
0.998863
1.00199
0.998123
0.996946
1.00059
1
0.999147
0.999482
1.0008
0.999656
0.999265
1.00064
1.00029
0.999037
1
1
1
1.00157
0.9997
0.997653
1.0017
1.00236
0.997405
0.995092
1.00222
1.00004
0.995168
0.99936
1.00118
0.997926
0.998533
1.00056
1.00002
0.999851
0.999921
0.999904
0.999663
1.00044
1.00008
1
1
1
1
1
1
1
0.998719
1.00669
0.999024
1.00229
0.997655
0.995699
0.999635
1.00055
0.997993
0.999128
1.00075
0.9998
0.998935
1.00029
1.00093
0.998913
0.99934
1.00146
1
1
1
1
1.00491
1.01075
1.00159
1.00145
1.00791
1.00238
0.989849
0.996726
1.00469
1
0.996453
1.00062
1.00055
0.998462
1.00022
1
0.999844
0.999852
1.00092
0.999086
0.998731
1.00231
0.997724
0.999195
1.00982
1.00585
0.99521
1.0058
1.0146
0.998515
0.993636
0.995899
1.00024
0.999232
0.995752
0.998003
0.999678
0.999068
1.00008
1.00211
1.00125
1.00692
1
1.00082
1.00122
0.998348
1
0.999513
1.00341
1.00619
1.00169
1.00082
1.00792
1.00706
1.00392
0.993926
1.00951
0.998654
0.991934
0.999698
1.00068
0.997072
0.998469
1.00132
1.00127
1.00309
1.0083
1.0022
0.994963
0.999811
1.00311
1.00094
1.0064
1.00569
0.995302
1.0026
1.01485
1.00048
0.992925
1.02411

VECTORS velocity double
-4.49997e-07 4.3997e-06 0
-0.000143834 8.3494e-05 0
-0.000265578 5.84029e-06 0
-0.000262703 -1.871e-05 0
-0.000251547 2.2634e-05 0
-0.000445038 9.80757e-05 0
-0.000555599 -2.01773e-05 0
-0.000497819 -2.70166e-05 0
-0.000504589 4.32037e-05 0
-0.000608416 1.30372e-05 0
-0.000551869 -4.82236e-05 0
-0.000472723 -8.91961e-06 0
-0.000437531 -6.04856e-06 0
-0.00043255 -1.23022e-05 0
-0.00040108 2.40155e-06 0
-0.000388353 -9.3174e-06 0
-0.000348041 -7.41461e-06 0
-0.00037819 2.62441e-05 0
-0.000424072 3.75529e-05 0
-0.00036005 -5.96386e-05 0
-0.000223588 1.14468e-05 0
-0.000243713 4.97947e-05 0
-0.000206336 3.30931e-06 0
-9.43292e-05 -2.43806e-05 0
2.23212e-06 3.42556e-05 0
-8.82507e-05 0.000135491 0
-0.000404315 0.000355209 0
-0.000617434 9.15401e-05 0
-0.000781472 4.92785e-05 0
-0.00113811 0.000279545 0
-0.0013967 0.000249971 0
-0.00135016 -1.11568e-05 0
-0.00150897 6.66792e-05 0
-0.00175414 0.00014939 0
-0.00168392 -6.26833e-05 0
-0.00143845 -0.000160863 0
-0.00146226 -1.34506e-05 0
-0.00140732 -0.000105183 0
-0.00110821 -0.000148263 0
-0.000997414 2.92217e-05 0
-0.00120146 2.95163e-05 0
-0.00118853 -8.54293e-05 0
-0.00101593 -4.58248e-07 0
-0.00102066 5.7403e-05 0
-0.00111374 -0.00019417 0
-0.000870513 -0.000236561 0
-0.000525721 -0.000118669 0
-0.000386083 -0.000131677 0
-0.000295562 -0.000276809 0
-7.36115e-05 -0.000135308 0
-0.000124738 0.000446525 0
-0.000326306 0.00053547 0
-0.000728619 0.000518461 0
-0.00143666 0.000474242 0
-0.00170788 0.000513289 0
-0.00169036 0.000290519 0
-0.00200467 0.000272263 0
-0.00248145 0.000313753 0
-0.00243089 7.87219e-05 0
-0.00231919 -0.000142945 0
-0.00236518 -0.000240864 0
-0.00211499 -0.000240018 0
-0.001751 -0.000294901 0
-0.00171738 -0.000266648 0
-0.00160801 -4.5622e-05 0
-0.00138411 6.07958e-05 0
-0.00145711 -1.02827e-05 0
-0.00165084 -4.84403e-05 0
-0.00142587 -6.39705e-05 0
-0.00123525 -0.00014348 0
-0.00125716 -0.000424651 0
-0.000971705 -0.000497786 0
-0.000430644 -0.000273728 0
-0.00021427 -0.000282619 0
-8.24029e-05 -0.000291952 0
6.12312e-05 0.000554893 0
-0.00045324 0.00104724 0
-0.00141985 0.00125962 0
-0.00184807 0.000865418 0
-0.00168161 0.000466226 0
-0.00190969 0.000577084 0
-0.00249158 0.000746967 0
-0.00282175 0.000561567 0
-0.00286034 2.67415e-05 0
-0.00296089 -0.000165385 0
-0.00289554 -0.000382456 0
-0.0024352 -0.000637773 0
-0.00200495 -0.00052698 0
-0.00190016 -0.000371908 0
-0.00170304 -0.00025346 0
-0.00144451 -4.50609e-05 0
-0.00149269 0.000146631 0
-0.0017737 -1.53509e-05 0
-0.00170408 -0.000299512 0
-0.00132554 -0.000396495 0
-0.00112884 -0.000544767 0
-0.0011007 -0.000890964 0
-0.00068256 -0.000889988 0
-0.000149919 -0.000626042 0
6.15544e-05 -0.000419452 0
-0.000159859 0.000698226 0
-0.00117633 0.00236982 0
-0.00177293 0.00158719 0
-0.00132969 0.000642963 0
-0.00128825 0.000561167 0
-0.00203558 0.00129573 0
-0.00255599 0.00108988 0
-0.00284226 0.000800801 0
-0.00333827 0.000336385 0
-0.0033765 -0.000348967 0
-0.0028549 -0.00079366 0
-0.00258414 -0.000951364 0
-0.0023147 -0.00090476 0
-0.00176335 -0.000696368 0
-0.00145599 -0.000393927 0
-0.00150171 -0.000123456 0
-0.0012617 0.000136401 0
-0.000987267 9.9447e-05 0
-0.00124779 -0.000195096 0
-0.00147923 -0.000747825 0
-0.00115226 -0.000660291 0
-0.000897818 -0.00085337 0
-0.000773816 -0.00123522 0
-0.000432392 -0.00113002 0
-4.01266e-05 -0.000284082 0
-0.000390664 0.00151716 0
-0.000970068 0.00299046 0
-0.00101141 0.00147257 0
-0.000771071 0.000183637 0
-0.000683102 0.000939937 0
-0.00112438 0.00199622 0
-0.00208001 0.00192059 0
-0.00325795 0.00133765 0
-0.00372895 0.00049448 0
-0.00331754 -0.000675578 0
-0.00270696 -0.00123783 0
-0.0024562 -0.00125121 0
-0.00217641 -0.00131279 0
-0.00170198 -0.0010897 0
-0.00119319 -0.000723692 0
-0.000815242 -0.000376534 0
-0.000578551 -6.58054e-05 0
-0.000464129 4.15201e-05 0
-0.000441773 -6.19042e-05 0
-0.000751791 -0.000504601 0
-0.00101526 -0.000902472 0
-0.000732819 -0.00137782 0
-0.000433514 -0.00135167 0
-0.000529632 -0.00139975 0
-0.000249407 -0.000816516 0
-0.000106893 0.00226663 0
-0.000174875 0.00262059 0
-4.97127e-05 0.00154287 0
0 0 0
-0.000189196 0.00134421 0
-0.000870015 0.00259211 0
-0.0021029 0.00342986 0
-0.00306151 0.00214413 0
-0.00285445 0.000140338 0
-0.00267414 -0.0010247 0
-0.00272669 -0.00156957 0
-0.0022676 -0.00169278 0
-0.00171566 -0.00161931 0
-0.00161179 -0.0014632 0
-0.00128301 -0.00127492 0
-0.00066014 -0.000754076 0
-0.000153457 -0.000384011 0
0 0 0
0 0 0
0 0 0
-0.000478508 -0.000578721 0
-0.000783896 -0.00172288 0
-0.000293776 -0.00145898 0
-5.48774e-05 -0.001108 0
-2.22593e-05 -0.00111512 0
0.000407072 0.00183178 0
0.0002241 0.00313038 0
-0.000148735 0.0014696 0
0 0 0
-0.000102419 0.00168844 0
-0.00104037 0.00387159 0
-0.00181059 0.00402981 0
-0.00172385 0.00236537 0
-0.00147996 -5.93523e-05 0
-0.00147029 -0.00111323 0
-0.00165515 -0.00156047 0
-0.00181784 -0.00186493 0
-0.00191539 -0.00176944 0
-0.00178515 -0.00187061 0
-0.00125135 -0.00169698 0
-0.000625116 -0.00131881 0
-0.00012048 -0.000832102 0
0 0 0
0 0 0
0 0 0
-4.50534e-05 -0.000398505 0
-0.000429632 -0.00129545 0
-0.000481229 -0.00224447 0
0.000123404 -0.00174151 0
0.000279255 -0.000867398 0
-0.000224356 0.00153355 0
-0.000346549 0.00376901 0
-7.8822e-05 0.00112534 0
0 0 0
-0.000113948 0.00200986 0
-0.000676835 0.0051488 0
-0.00075383 0.00363372 0
-0.00023165 0.00172494 0
0 0 0
-0.000444961 -0.000636667 0
-0.0012377 -0.00105621 0
-0.00198679 -0.00151962 0
-0.00216139 -0.0018711 0
-0.00157657 -0.00227468 0
-0.00124248 -0.00198134 0
-0.00137686 -0.00192945 0
-0.000657256 -0.00136913 0
0 0 0
0 0 0
0 0 0
8.51701e-05 -0.000227568 0
0.000177451 -0.000898374 0
-8.46955e-05 -0.00215182 0
-0.000458048 -0.00205083 0
-0.000208545 -0.000609253 0
-0.00028171 0.0022981 0
-5.68215e-05 0.0029355 0
0.000253978 0.00119772 0
0 0 0
-0.000830381 0.00286729 0
-0.00176476 0.00491717 0
-0.00149818 0.00369483 0
-0.00108799 0.0012958 0
-0.000987869 0.000100886 0
-0.00100594 -9.58811e-05 0
-0.00149585 -5.37901e-05 0
-0.00213154 -0.00117733 0
-0.00212888 -0.00209703 0
-0.00226218 -0.00234901 0
-0.00230933 -0.00223912 0
-0.00198435 -0.00227285 0
-0.00200996 -0.0015043 0
-0.00186793 -0.000798302 0
-0.000989461 -0.000271014 0
-0.000770602 -8.66981e-05 0
-0.000576869 -0.000368698 0
9.26682e-05 -0.00187988 0
0.00035685 -0.00142253 0
-0.000352939 -0.001506 0
-0.000338428 -0.00158801 0
0.000305881 0.0022748 0
0.000631878 0.00230852 0
0.000300308 0.00175144 0
-0.00133183 0.00130524 0
-0.00213995 0.00378893 0
-0.00219655 0.00487462 0
-0.00262742 0.00388402 0
-0.00215929 0.000648147 0
-0.00114121 -0.000387004 0
-0.00151686 0.00037769 0
-0.00221955 0.000292992 0
-0.00168231 -0.00129626 0
-0.00155306 -0.00186018 0
-0.00267094 -0.0018286 0
-0.00327585 -0.00221928 0
-0.00305629 -0.00224157 0
-0.00325313 -0.00114903 0
-0.00375081 -0.00137459 0
-0.00292662 -0.000866774 0
-0.00168929 -0.000682273 0
-0.0010687 -0.000538068 0
-0.00116531 -0.00218448 0
-0.000504024 -0.00162846 0
0.000327046 -0.00124929 0
0.00033352 -0.00150517 0
0.000443696 0.00115696 0
0.000130576 0.00356185 0
-0.000907501 0.00249678 0
-0.00144307 0.00221566 0
-0.00260542 0.00456527 0
-0.00369613 0.00561483 0
-0.00182837 0.00209017 0
0 0 0
-0.000919228 0.000134379 0
-0.000936264 0.000384129 0
0 0 0
-0.00106083 -0.000725145 0
-0.00255961 -0.000959737 0
-0.00277491 -0.0014512 0
-0.00286675 -0.00172399 0
-0.00404679 -0.00173454 0
-0.00425658 -0.00157196 0
-0.00363894 -0.00117053 0
-0.00386191 -0.00135977 0
-0.00367914 -0.00224725 0
-0.00194599 -0.0014746 0
-0.00149966 -0.00172528 0
-0.00135936 -0.00299685 0
-0.000337983 -0.00274066 0
0.000330643 -0.000703267 0
-0.000642329 0.00141026 0
-0.000806416 0.00388128 0
-0.000642111 0.00339995 0
-0.0024964 0.00349289 0
-0.00374973 0.00512041 0
-0.00209607 0.00436717 0
-0.000752944 0.000385709 0
-0.0018503 0.000364791 0
-0.0013139 -0.00019045 0
0 0 0
-0.00047921 0.000466716 0
-0.0016463 0.000589062 0
-0.00239183 -0.000230752 0
-0.00259975 -0.00125491 0
-0.00313967 -0.000957598 0
-0.00432026 -0.000957106 0
-0.00451523 -0.00175692 0
-0.00400263 -0.00126639 0
-0.00380096 -0.00145608 0
-0.00418342 -0.00248571 0
-0.00322987 -0.00273874 0
-0.0016057 -0.00259085 0
-0.00107664 -0.00259423 0
-0.0019406 -0.00311344 0
-0.000912724 -0.00149148 0
-0.000253085 0.00278832 0
-0.000351067 0.00252651 0
-0.000892519 0.00454125 0
-0.00288043 0.00622394 0
-0.00340847 0.00453494 0
-0.00312824 0.00278894 0
-0.0047363 0.00211414 0
-0.00485856 -4.43797e-06 0
-0.00322723 -0.00162918 0
-0.00302609 -0.000425919 0
-0.00314544 0.00132361 0
-0.00272545 0.000992941 0
-0.0020012 -0.000202689 0
-0.0028912 -0.000392408 0
-0.00368548 -0.000412588 0
-0.00315207 -0.000906031 0
-0.00362425 -0.000847307 0
-0.00520256 -0.00174364 0
-0.00417163 -0.00235501 0
-0.00338245 -0.00190383 0
-0.00401239 -0.00350338 0
-0.00349464 -0.00514329 0
-0.00111544 -0.00257912 0
-0.000605558 -0.00253569 0
-0.000170873 -0.00343471 0
0.000508741 0.00240891 0
-0.000572261 0.0040363 0
-0.00250916 0.00599785 0
-0.00245975 0.00632325 0
-0.00225269 0.00492715 0
-0.00368749 0.00416718 0
-0.00427974 0.00288376 0
-0.00470496 -0.00041057 0
-0.00480566 -0.00221808 0
-0.00416564 -0.000991063 0
-0.00364743 0.000963491 0
-0.00290837 1.70136e-05 0
-0.00233735 -0.000504003 0
-0.002434 0.000157669 0
-0.00248688 -0.000222803 0
-0.00274997 -0.000764018 0
-0.00347146 0.000277602 0
-0.00456672 -0.00146215 0
-0.00446346 -0.00241095 0
-0.00363265 -0.00307852 0
-0.00273774 -0.00304554 0
-0.00394006 -0.0049966 0
-0.00284167 -0.00520901 0
-0.000287986 -0.00413913 0
0.000902634 -0.00251423 0
-4.07499e-05 0.00168659 0
-0.00138933 0.00714315 0
-0.00221445 0.00639786 0
-0.00164785 0.00476892 0
-0.00219451 0.00638383 0
-0.00335348 0.00587989 0
-0.00177433 0.000891971 0
0 0 0
-0.00173516 -0.00123042 0
-0.00285034 -0.00113639 0
-0.00132039 -0.000325222 0
-0.000937551 -0.000348474 0
-0.0015793 3.97655e-05 0
-0.00121949 -0.000293177 0
-0.000998572 -1.60487e-05 0
-0.00281727 0.000574387 0
-0.00270815 9.39533e-06 0
-0.00149419 -0.00109768 0
-0.00355616 -0.000796137 0
-0.00595113 -0.00503541 0
-0.0036089 -0.00354654 0
-0.00284515 -0.00375915 0
-0.00331958 -0.00682273 0
-0.00298883 -0.00719305 0
-0.000432155 -0.00219139 0
-0.00158189 0.00405896 0
-0.0017152 0.00589257 0
-0.000100234 0.00614162 0
-0.00192492 0.00686842 0
-0.00264476 0.0058642 0
-0.000217942 0.00364184 0
0.000648536 0.000481308 0
0 0 0
0.000274084 -0.000357219 0
6.97897e-05 -0.00100743 0
-0.000173754 -0.00120515 0
0 0 0
-0.000149893 0.000198386 0
-0.000786928 -0.00010479 0
-0.00120415 0.00045813 0
-0.00118593 0.00104348 0
-0.000734606 -0.000725739 0
-0.00114595 -8.30201e-05 0
-0.00145094 0.000311064 0
-0.00335302 -0.00278375 0
-0.00476113 -0.0045145 0
-0.00368479 -0.00653334 0
-0.00178596 -0.00481863 0
-0.00395165 -0.00667085 0
-0.00202134 -0.00612156 0
0.000732966 0.00541387 0
0.000591751 0.00436655 0
-0.00181729 0.00756913 0
-0.00404797 0.00911887 0
-0.00297451 0.00420234 0
-0.00105694 0.00127672 0
-0.000236384 0.00125781 0
0 0 0
-0.000222354 -0.000406777 0
-0.000452534 -0.000907107 0
-0.000997022 -0.000570681 0
-0.000731914 -0.000284473 0
0.000270942 -0.000229421 0
-0.000281544 0.00102002 0
-0.000523129 0.000826385 0
0.00044944 -0.000156442 0
0.00020631 -0.000426032 0
-0.0006906 0.00029953 0
0 0 0
-0.000327037 0.000316015 0
-0.00340058 -0.00288097 0
-0.00666651 -0.00876234 0
-0.0034317 -0.00573165 0
-0.000309143 -0.00706552 0
0.0011997 -0.00802736 0
0.000874952 0.00293421 0
-0.00224903 0.00999592 0
-0.0059424 0.00988153 0
-0.00382852 0.0060511 0
-0.00211663 0.00382796 0
-0.00263457 0.00129619 0
-0.00128252 -0.00110421 0
0 0 0
-0.000500697 0.000553832 0
-0.000917507 -0.00101993 0
-0.00101855 -0.000395064 0
-0.00165442 -0.000689948 0
-0.00181912 -0.00036952 0
-0.000394759 -4.23036e-06 0
0.000874072 0.000352704 0
0.000312078 0.000302649 0
7.19484e-05 0.00010732 0
-1.16479e-05 -3.05801e-05 0
0 0 0
-0.000108973 0.000622286 0
3.11635e-05 -0.000158992 0
-0.00335212 -0.00413572 0
-0.00606649 -0.00969852 0
-0.00351216 -0.0132057 0
0.000890051 -0.0053496 0
-0.00196715 0.00448297 0
-0.00471583 0.01383 0
-0.00386357 0.00924207 0
-0.00501983 0.00578506 0
-0.0091931 0.0047257 0
-0.00910342 0.000173794 0
-0.00360347 -0.00499498 0
0 0 0
-0.00151599 0.00183259 0
-0.00307539 -3.91141e-05 0
-0.00180834 -0.0014219 0
-0.000785639 -0.000111413 0
-0.00119165 -0.000141565 0
-0.0011888 -0.00139149 0
-0.000372949 -0.000952948 0
-1.35287e-05 0.00146112 0
0 0 0
0 0 0
0 0 0
-0.000252973 6.25155e-05 0
0.000881765 0.000199511 0
0.00022548 -0.000241339 0
-0.00591468 -0.00591301 0
-0.0102682 -0.0166539 0
-0.00347552 -0.00953536 0
-0.00253298 0.011157 0
-0.00234176 0.0089263 0
-0.00140595 0.0102974 0
-0.00792826 0.0137334 0
-0.00839343 0.00315373 0
-0.00524718 -0.00240777 0
-0.00828614 -0.00618673 0
-0.00865566 -0.00246808 0
-0.00245796 -0.000624887 0
-0.00110085 0.00183009 0
-0.00373419 -0.00230483 0
-0.00321645 -0.000805816 0
-0.00070015 -0.00181074 0
-0.000258676 0.000117327 0
-0.0016662 -0.00113136 0
-0.00104533 7.56925e-05 0
0 0 0
0 0 0
0 0 0
0 0 0
0 0 0
0 0 0
0 0 0
-0.00438757 -0.0109804 0
-0.00405774 -0.0210487 0
0.00365681 0.00956286 0
-0.00100406 0.013271 0
-0.0107349 0.0149956 0
-0.0104042 0.01383 0
-0.00508106 0.000854563 0
-0.00367879 -0.00163391 0
-0.00782333 -0.00206827 0
-0.0102294 -0.00518166 0
-0.00708979 -0.00414358 0
-0.00397523 0.00123925 0
-0.00251432 -0.00125066 0
-0.00194666 -0.00219253 0
-0.000256126 -0.00440943 0
0.00189037 0.000148848 0
0.00128005 0.000896635 0
-7.14974e-05 -0.00134488 0
0 0 0
0 0 0
0 0 0
0 0 0
-0.00467511 0.00336918 0
-0.0106236 0.000227828 0
-0.00844398 -0.0017956 0
0.00354745 -0.0164986 0
0.00693199 -0.0173178 0
-0.00266676 0.00770229 0
-0.0133616 0.0293907 0
-0.0102966 0.012095 0
0.000166444 0.00541495 0
0 0 0
-0.00169464 0.000397554 0
-0.00122012 0.000345461 0
-0.00272871 -0.00405768 0
-0.00557708 -0.00549805 0
-0.00269017 -0.00507534 0
0 0 0
0.000295708 -0.0045816 0
-0.00167796 -0.00262544 0
-0.00207209 -0.00395232 0
0.00197267 0.00101103 0
-0.000379811 0.00259864 0
-0.00434225 -6.64978e-05 0
-0.00185355 -0.00208337 0
-0.000250995 0.0012386 0
-0.00687714 0.00551933 0
-0.00822665 0.00600032 0
-0.00409997 0.00186571 0
-0.00581001 -0.00460173 0
-0.00717119 -0.0314018 0
-0.00209788 -0.0102067 0
-0.00629352 0.0211243 0
-0.00710353 0.0230505 0
0.00593457 0.00237377 0
0.0161447 -1.11305e-05 0
0.0156537 0.00401745 0
0.0120439 -0.000613458 0
0.0157566 -0.000986698 0
0.0167896 -0.00102477 0
0.0102426 -0.00161991 0
0.00571194 -0.00659611 0
0.0108354 -0.00382109 0
0.00797289 0.000756437 0
0 0 0
0.00241132 -0.00670364 0
0.00473185 -0.000201117 0
0.00214739 0.00722144 0
0 0 0
0.00322997 -0.0056793 0
0.00550911 0.00278588 0
0.00338475 0.00923009 0
0.00636775 0.00047744 0
0.011836 0.00105147 0
0.00733613 0.00041478 0
-0.00619176 -0.0222691 0
-0.00594812 -0.0223372 0
0.0234949 0.015289 0
0.0515349 0.00363333 0
0.0541523 -0.00191398 0
0.0489082 -0.00170901 0
0.0523654 0.00384442 0
0.056007 -0.0013505 0
0.0525595 -0.00109459 0
0.0511692 7.77611e-05 0
0.0532413 0.00117622 0
0.052057 -0.00199842 0
0.0435245 -0.00378118 0
0.0438391 0.00384881 0
0.0495266 -0.00022895 0
0.0440555 -0.00358889 0
0.0385343 -0.00019085 0
0.0440126 0.00368296 0
0.0497628 -0.00023861 0
0.0438444 -0.00384949 0
0.0402568 0.00152799 0
0.0487091 0.00406473 0
0.0521662 -0.00200175 0
0.0480111 -0.000535432 0
0.0525093 0.00356727 0
0.0524156 -0.00370686 0
0.0242956 -0.0158216 0


