# vtk DataFile Version 4.0
SiwiRVisFile
ASCII
DATASET STRUCTURED_POINTS
DIMENSIONS 5 5 1
ORIGIN 0 0 0
POINT_DATA 25


SCALARS flags double 125
LOOKUP_TABLE default25
1
1
1
1
1
1
1
1
1
1
1
1
1
1
1
1
1
1
1
1
1
1
1
1
1

SCALARS density double 1
LOOKUP_TABLE default
358494
65454.1
-5231.51
3525.97
8041.75
986731
347883
-1264.55
12027.7
143.453
1.34838e+06
488439
9906.95
15902.6
321.601
696973
259205
3221.76
11081.4
554.815
386.079
597.646
983.122
733.584
45.1114

VECTORS velocity double
0.102627 -0.318959 0
-0.577073 0.0856084 0
-0.696009 0.589735 0
0.012261 -0.966905 0
-0.820425 -0.502073 0
0.0138487 -0.145448 0
-0.300431 0.621226 0
7.53197 12.556 0
-0.35742 0.699232 0
-1.96419 2.14922 0
0.278133 -0.153532 0
0.0442061 0.57173 0
-0.486321 -1.25248 0
0.202055 0.623188 0
0.79662 -0.878885 0
0.612638 -0.140042 0
0.425138 0.589627 0
2.07753 -0.905169 0
0.330007 0.364171 0
0.920338 1.5715 0
0.604738 1.80296 0
-0.23964 1.03911 0
0.207764 0.626688 0
0.00875046 1.01849 0
-2.13829 2.08177 0


