# vtk DataFile Version 4.0
SiwiRVisFile
ASCII
DATASET STRUCTURED_POINTS
DIMENSIONS 50 50 1
ORIGIN 0 0 0
SPACING 1 1 1
POINT_DATA 2500


SCALARS flags double 1
LOOKUP_TABLE default
1
1
1
1
1
1
1
1
1
1
1
1
1
1
1
1
1
1
1
1
1
1
1
1
1
1
1
1
1
1
1
1
1
1
1
1
1
1
1
1
1
1
1
1
1
1
1
1
1
1
1
1
1
1
1
1
1
1
1
1
1
1
1
1
1
1
1
1
1
1
1
1
1
1
1
1
1
1
1
1
1
1
1
1
1
1
1
1
1
1
1
1
1
1
1
1
1
1
1
1
1
1
1
1
1
1
1
1
1
1
1
1
1
1
1
1
1
1
1
1
1
1
1
1
1
1
1
1
1
1
1
1
1
1
1
1
1
1
1
1
1
1
1
1
1
1
1
1
1
1
1
1
1
1
1
1
1
1
1
1
1
1
1
1
1
1
1
1
1
1
1
1
1
1
1
1
1
1
1
1
1
1
1
1
1
1
1
1
1
1
1
1
1
1
1
1
1
1
1
1
1
1
1
1
1
1
1
1
1
1
1
1
1
1
1
1
1
1
1
1
1
1
1
1
1
1
1
1
1
1
1
1
1
1
1
1
1
1
1
1
1
1
1
1
1
1
1
1
1
1
1
1
1
1
1
1
1
1
1
1
1
1
1
1
1
1
1
1
1
1
1
1
1
1
1
1
1
1
1
1
1
1
1
1
1
1
1
1
1
1
1
1
1
1
1
1
1
1
1
1
1
1
1
1
1
1
1
1
1
1
1
1
1
1
1
1
1
1
1
1
1
1
1
1
1
1
1
1
1
1
1
1
1
1
1
1
1
1
1
1
1
1
1
1
1
1
1
1
1
1
1
1
1
1
1
1
1
1
1
1
1
1
1
1
1
1
1
1
1
1
1
1
1
1
1
1
1
1
1
1
1
1
1
1
1
1
1
1
1
1
1
1
1
1
1
1
1
1
1
1
1
1
1
1
1
1
1
1
1
1
1
1
1
1
1
1
1
1
1
1
1
1
1
1
1
1
1
1
1
1
1
1
1
1
1
1
1
1
1
1
1
1
1
1
1
1
1
1
1
1
1
1
1
1
1
1
1
1
1
1
1
1
1
1
1
1
1
1
1
1
1
1
1
1
1
1
1
1
1
1
1
1
1
1
1
1
1
1
1
1
1
1
1
1
1
1
1
1
1
1
1
1
1
1
1
1
1
1
1
1
1
1
1
1
1
1
1
1
1
1
1
1
1
1
1
1
1
1
1
1
1
1
1
1
1
1
1
1
1
1
1
1
1
1
1
1
1
1
1
1
1
1
1
1
1
1
1
1
1
1
1
1
1
1
1
1
1
1
1
1
1
1
1
1
1
1
1
1
1
1
1
1
1
1
1
1
1
1
1
1
1
1
1
1
1
1
1
1
1
1
1
1
1
1
1
1
1
1
1
1
1
1
1
1
1
1
1
1
1
1
1
1
1
1
1
1
1
1
1
1
1
1
1
1
1
1
1
1
1
1
1
1
1
1
1
1
1
1
1
1
1
1
1
1
1
1
1
1
1
1
1
1
1
1
1
1
1
1
1
1
1
1
1
1
1
1
1
1
1
1
1
1
1
1
1
1
1
1
1
1
1
1
1
1
1
1
1
1
1
1
1
1
1
1
1
1
1
1
1
1
1
1
1
1
1
1
1
1
1
1
1
1
1
1
1
1
1
1
1
1
1
1
1
1
1
1
1
1
1
1
1
1
1
1
1
1
1
1
1
1
1
1
1
1
1
1
1
1
1
1
1
1
1
1
1
1
1
1
1
1
1
1
1
1
1
1
1
1
1
1
1
1
1
1
1
1
1
1
1
1
1
1
1
1
1
1
1
1
1
1
1
1
1
1
1
1
1
1
1
1
1
1
1
1
1
1
1
1
1
1
1
1
1
1
1
1
1
1
1
1
1
1
1
1
1
1
1
1
1
1
1
1
1
1
1
1
1
1
1
1
1
1
1
1
1
1
1
1
1
1
1
1
1
1
1
1
1
1
1
1
1
1
1
1
1
1
1
1
1
1
1
1
1
1
1
1
1
1
1
1
1
1
1
1
1
1
1
1
1
1
1
1
1
1
1
1
1
1
1
1
1
1
1
1
1
1
1
1
1
1
1
1
1
1
1
1
1
1
1
1
1
1
1
1
1
1
1
1
1
1
1
1
1
1
1
1
1
1
1
1
1
1
1
1
1
1
1
1
1
1
1
1
1
1
1
1
1
1
1
1
1
1
1
1
1
1
1
1
1
1
1
1
1
1
1
1
1
1
1
1
1
1
1
1
1
1
1
1
1
1
1
1
1
1
1
1
1
1
1
1
1
1
1
1
1
1
1
1
1
1
1
1
1
1
1
1
1
1
1
1
1
1
1
1
1
1
1
1
1
1
1
1
1
1
1
1
1
1
1
1
1
1
1
1
1
1
1
1
1
1
1
1
1
1
1
1
1
1
1
1
1
1
1
1
1
1
1
1
1
1
1
1
1
1
1
1
1
1
1
1
1
1
1
1
1
1
1
1
1
1
1
1
1
1
1
1
1
1
1
1
1
1
1
1
1
1
1
1
1
1
1
1
1
1
1
1
1
1
1
1
1
1
1
1
1
1
1
1
1
1
1
1
1
1
1
1
1
1
1
1
1
1
1
1
1
1
1
1
1
1
1
1
1
1
1
1
1
1
1
1
1
1
1
1
1
1
1
1
1
1
1
1
1
1
1
1
1
1
1
1
1
1
1
1
1
1
1
1
1
1
1
1
1
1
1
1
1
1
1
1
1
1
1
1
1
1
1
1
1
1
1
1
1
1
1
1
1
1
1
1
1
1
1
1
1
1
1
1
1
1
1
1
1
1
1
1
1
1
1
1
1
1
1
1
1
1
1
1
1
1
1
1
1
1
1
1
1
1
1
1
1
1
1
1
1
1
1
1
1
1
1
1
1
1
1
1
1
1
1
1
1
1
1
1
1
1
1
1
1
1
1
1
1
1
1
1
1
1
1
1
1
1
1
1
1
1
1
1
1
1
1
1
1
1
1
1
1
1
1
1
1
1
1
1
1
1
1
1
1
1
1
1
1
1
1
1
1
1
1
1
1
1
1
1
1
1
1
1
1
1
1
1
1
1
1
1
1
1
1
1
1
1
1
1
1
1
1
1
1
1
1
1
1
1
1
1
1
1
1
1
1
1
1
1
1
1
1
1
1
1
1
1
1
1
1
1
1
1
1
1
1
1
1
1
1
1
1
1
1
1
1
1
1
1
1
1
1
1
1
1
1
1
1
1
1
1
1
1
1
1
1
1
1
1
1
1
1
1
1
1
1
1
1
1
1
1
1
1
1
1
1
1
1
1
1
1
1
1
1
1
1
1
1
1
1
1
1
1
1
1
1
1
1
1
1
1
1
1
1
1
1
1
1
1
1
1
1
1
1
1
1
1
1
1
1
1
1
1
1
1
1
1
1
1
1
1
1
1
1
1
1
1
1
1
1
1
1
1
1
1
1
1
1
1
1
1
1
1
1
1
1
1
1
1
1
1
1
1
1
1
1
1
1
1
1
1
1
1
1
1
1
1
1
1
1
1
1
1
1
1
1
1
1
1
1
1
1
1
1
1
1
1
1
1
1
1
1
1
1
1
1
1
1
1
1
1
1
1
1
1
1
1
1
1
1
1
1
1
1
1
1
1
1
1
1
1
1
1
1
1
1
1
1
1
1
1
1
1
1
1
1
1
1
1
1
1
1
1
1
1
1
1
1
1
1
1
1
1
1
1
1
1
1
1
1
1
1
1
1
1
1
1
1
1
1
1
1
1
1
1
1
1
1
1
1
1
1
1
1
1
1
1
1
1
1
1
1
1
1
1
1
1
1
1
1
1
1
1
1
1
1
1
1
1
1
1
1
1
1
1
1
1
1
1
1
1
1
1
1
1
1
1
1
1
1
1
1
1
1
1
1
1
1
1
1
1
1
1
1
1
1
1
1
1
1
1
1
1
1
1
1
1
1
1
1
1
1
1
1
1
1
1
1
1
1
1
1
1
1
1
1
1
1
1
1
1
1
1
1
1
1
1
1
1
1
1
1
1
1
1
1
1
1
1
1
1
1
1
1
1
1
1
1
1
1
1
1
1
1
1
1
1
1
1
1
1
1
1
1
1
1
1
1
1
1
1
1
1
1
1
1
1
1
1
1
1
1
1
1
1
1
1
1
1
1
1
1
1
1
1
1
1
1
1
1
1
1
1
1
1
1
1
1
1
1
1
1
1
1
1
1
1
1
1
1
1
1
1
1
1
1
1
1
1
1
1
1
1
1
1
1
1
1
1
1
1
1
1
1
1
1
1
1
1
1
1
1
1
1
1
1
1
1
1
1
1
1
1
1
1
1
1
1
1
1
1
1
1
1
1
1
1
1
1
1
1
1
1
1
1
1
1
1
1
1
1
1
1
1
1
1
1
1
1
1
1
1
1
1
1
1
1
1
1
1
1
1
1
1
1
1
1
1
1
1
1
1
1
1
1
1
1
1
1
1
1
1
1
1
1
1
1
1
1
1
1
1
1
1
1
1
1
1
1
1
1
1
1
1
1
1
1
1
1
1
1
1
1
1
1
1
1
1
1
1
1
1
1
1
1
1
1
1
1
1
1
1
1
1
1
1
1
1
1
1
1
1
1
1
1
1
1
1
1
1
1
1
1
1
1
1
1
1
1
1
1
1
1
1
1
1
1
1
1
1
1
1
1
1
1
1
1
1
1
1
1
1
1
1
1
1
1
1
1
1
1
1
1
1
1
1
1
1
1
1
1
1
1
1
1
1
1
1
1
1
1
1
1
1
1
1
1
1
1
1
1
1
1
1
1
1
1
1
1
1
1
1
1
1
1
1
1
1
1
1
1
1
1
1
1
1
1
1
1
1
1
1
1
1
1
1
1
1
1
1
1
1
1
1
1
1
1
1
1
1
1
1
1
1
1
1
1
1
1
1
1
1
1
1
1
1
1
1
1
1
1
1
1
1
1
1
1
1
1
1
1
1
1
1
1
1
1
1
1
1
1
1
1
1
1
1
1
1
1
1
1
1
1
1
1
1
1
1
1
1
1
1
1
1
1
1
1
1
1
1
1
1
1
1
1
1
1
1
1
1
1
1
1
1
1
1
1
1
1
1
1
1
1
1
1
1
1
1
1
1
1
1
1
1
1
1
1
1
1
1
1
1
1
1
1
1
1
1
1
1
1
1
1
1
1
1
1
1
1
1
1
1
1
1
1
1
1
1
1
1
1
1
1
1
1
1
1
1
1
1
1
1
1
1
1
1
1
1
1
1
1
1
1
1
1
1
1
1
1
1
1
1
1
1
1
1
1
1
1
1
1
1
1
1
1
1
1
1
1
1
1
1
1
1
1
1
1
1
1
1
1
1
1
1
1
1
1
1
1
1
1
1
1
1
1
1
1
1
1
1
1
1
1
1
1
1
1
1
1
1
1
1
1
1
1
1
1
1
1
1
1
1
1
1
1
1
1
1
1
1
1
1
1
1
1
1
1
1
1
1
1
1
1
1
1
1
1
1
1
1
1
1
1
1
1
1
1
1
1
1
1
1
1
1
1
1
1
1
1
1
1
1
1
1
1
1
1
1
1
1
1
1
1
1
1
1
1
1
1
1
1
1
1
1
1
1
1
1
1
1
1
1
1
1
1

SCALARS density double 1
LOOKUP_TABLE default
0.999951
0.999949
0.999949
0.999956
0.999951
0.999945
0.999958
0.999961
0.999939
0.999948
0.999971
0.999944
0.99993
0.999971
0.999966
0.99992
0.999953
0.999988
0.999929
0.999924
0.999996
0.999958
0.999898
0.999975
0.999997
0.999904
0.999931
1.00001
0.999943
0.999906
0.999982
0.999976
0.999914
0.999951
0.999986
0.999937
0.999931
0.999975
0.99996
0.999931
0.999956
0.999965
0.999943
0.999945
0.999959
0.999952
0.999947
0.999953
0.999955
0.999951
0.999948
0.99995
0.999955
0.999951
0.999944
0.999956
0.99996
0.999939
0.999948
0.999971
0.999946
0.999933
0.999969
0.999963
0.999929
0.999949
0.999973
0.999948
0.999934
0.999957
0.999967
0.999946
0.999938
0.999959
0.999965
0.999942
0.999939
0.999965
0.999962
0.999935
0.999942
0.999971
0.999955
0.999926
0.999954
0.999975
0.999938
0.999933
0.999971
0.999958
0.999931
0.999956
0.999965
0.999944
0.999948
0.999961
0.999954
0.99995
0.999954
0.999957
0.999947
0.999953
0.99995
0.999945
0.999956
0.999959
0.999941
0.999948
0.999969
0.999945
0.999933
0.99997
0.999965
0.999924
0.999953
0.99999
0.999934
0.999915
0.999991
0.999976
0.999893
0.99995
1.00001
0.999923
0.999901
1
0.999979
0.999891
0.999955
1.00001
0.999927
0.999913
0.99999
0.999969
0.999913
0.999951
0.999981
0.999939
0.999933
0.999971
0.999959
0.999934
0.999955
0.999963
0.999944
0.999946
0.999959
0.999953
0.999948
0.999955
0.999951
0.999946
0.999942
0.999954
0.999958
0.99994
0.99995
0.999969
0.999943
0.99994
0.999968
0.999949
0.999942
0.999963
0.999946
0.999943
0.999967
0.999947
0.999935
0.999966
0.99996
0.999938
0.999955
0.99996
0.999947
0.999952
0.999949
0.999949
0.999958
0.999945
0.999943
0.999965
0.999952
0.999941
0.999962
0.999954
0.999942
0.999965
0.999953
0.999934
0.999964
0.999962
0.999934
0.999954
0.999965
0.999945
0.99995
0.999961
0.999959
0.99995
0.999946
0.999938
0.999949
0.999953
0.999937
0.999943
0.999967
0.999946
0.99993
0.999968
0.99997
0.999924
0.999938
0.99999
0.999951
0.999903
0.999969
0.999992
0.999912
0.999931
0.999996
0.999949
0.999913
0.999972
0.99998
0.999922
0.999935
0.99999
0.999952
0.999911
0.999971
0.999987
0.999914
0.999935
0.999996
0.999953
0.999914
0.999962
0.999979
0.999934
0.999934
0.999973
0.999958
0.999936
0.99996
0.999968
0.99995
0.999955
0.999966
0.999959
0.999934
0.999945
0.999948
0.999929
0.999941
0.999962
0.999931
0.999942
0.999974
0.999932
0.99994
0.999987
0.999935
0.999921
0.999984
0.999965
0.99992
0.999956
0.999976
0.99994
0.99994
0.999962
0.999955
0.999943
0.999948
0.999957
0.999958
0.999947
0.999945
0.999963
0.999958
0.999931
0.999951
0.999977
0.999937
0.999926
0.999981
0.999963
0.999919
0.999966
0.999969
0.999929
0.999963
0.999972
0.99994
0.999962
0.999974
0.999955
0.999955
0.99997
0.999941
0.999945
0.999927
0.999927
0.999951
0.999943
0.999919
0.99995
0.999976
0.99994
0.999916
0.999972
0.999987
0.999912
0.999937
0.999998
0.99994
0.999923
0.999981
0.99996
0.999926
0.999957
0.99997
0.999939
0.999941
0.999965
0.999959
0.999933
0.999951
0.999974
0.999941
0.999927
0.999977
0.99996
0.999911
0.999965
0.999985
0.999922
0.999934
0.999981
0.999964
0.99993
0.99995
0.999983
0.999962
0.999949
0.999974
0.999975
0.999957
0.999959
0.999938
0.999902
0.999925
0.999944
0.999901
0.999917
0.999972
0.99991
0.999905
0.999994
0.999952
0.999902
0.999962
0.999977
0.999939
0.999933
0.999962
0.999962
0.999938
0.999938
0.999969
0.999959
0.999927
0.999961
0.999975
0.999928
0.999942
0.999978
0.999943
0.999932
0.999967
0.999966
0.999937
0.999943
0.999972
0.999958
0.999925
0.999946
0.999994
0.999946
0.999914
0.999996
0.999986
0.99993
0.999986
0.999998
0.999955
0.999975
0.999999
0.999962
0.999896
0.999881
0.999909
0.999911
0.999883
0.999882
0.999929
0.999933
0.999887
0.999912
0.99998
0.999931
0.999916
0.999979
0.999949
0.999925
0.999965
0.999961
0.999932
0.999943
0.999975
0.999951
0.999921
0.999967
0.999975
0.999925
0.99994
0.999983
0.999946
0.999928
0.999965
0.999965
0.999938
0.999943
0.999974
0.999949
0.999927
0.999982
0.999964
0.999928
0.999987
1
0.99997
0.999973
1.00001
1.00001
0.999987
0.999985
1.00001
1
0.99984
0.999891
0.999832
0.99982
0.999917
0.99986
0.999802
0.999906
0.999929
0.999871
0.999895
0.999956
0.999953
0.999905
0.99995
0.999987
0.999924
0.999928
0.999989
0.999967
0.999903
0.999959
1
0.999923
0.999916
0.999991
0.999975
0.999901
0.999948
0.999998
0.99993
0.999913
0.999976
0.999975
0.99991
0.999952
0.999997
0.999943
0.999943
1
1.00002
0.999964
0.99999
1.00008
1.00002
0.999973
1.00006
1.00005
0.999995
1.00004
0.999776
0.999803
0.99978
0.999732
0.999769
0.999815
0.999792
0.999763
0.999842
0.999861
0.999839
0.999909
0.999912
0.999908
0.999941
0.999948
0.999949
0.999929
0.99996
0.99997
0.999927
0.999944
0.999975
0.999941
0.999924
0.999976
0.99996
0.999928
0.999957
0.999973
0.999932
0.999943
0.999971
0.999947
0.999952
0.999961
0.999982
0.999978
0.999986
1.00004
1.00002
1.00004
1.0001
1.00007
1.00006
1.0001
1.00012
1.00009
1.00007
1.00008
0.99969
0.999549
0.999651
0.999658
0.999553
0.999606
0.999699
0.999656
0.999656
0.999752
0.999799
0.999762
0.99984
0.999939
0.999871
0.999884
0.999978
0.999973
0.999888
0.999934
1.00001
0.999927
0.999902
0.999983
0.99999
0.999908
0.999922
0.999998
0.999968
0.999893
0.999971
1.00001
0.99992
0.999926
1.00001
1.00001
0.999949
1.00005
1.00011
1.00006
1.00011
1.00019
1.00018
1.00014
1.00022
1.00026
1.00016
1.00017
1.00027
1.00015
0.999481
0.999334
0.999338
0.999386
0.999399
0.999346
0.999408
0.999467
0.999467
0.999543
0.999602
0.999655
0.999721
0.999775
0.999866
0.999862
0.999897
0.999942
0.999929
0.999947
0.999953
0.999956
0.999958
0.999944
0.99995
0.999955
0.999952
0.999939
0.999948
0.999948
0.999941
0.999965
0.999958
0.999987
1.00002
1.00001
1.00009
1.00013
1.00017
1.00022
1.00027
1.00031
1.0003
1.00036
1.00039
1.00034
1.00037
1.0004
1.0004
1.0003
0.999024
0.999144
0.999047
0.998928
0.999059
0.999045
0.999036
0.999116
0.999207
0.999193
0.999289
0.999464
0.99949
0.999556
0.999701
0.999815
0.999819
0.999822
0.999967
0.999954
0.999874
0.999939
1.00001
0.999938
0.999882
1.00001
0.999966
0.999888
0.999955
1.00002
0.999943
0.999921
1.00006
1.00005
1.00004
1.00015
1.00026
1.0003
1.00031
1.00045
1.00051
1.00047
1.00055
1.00061
1.00059
1.00057
1.00069
1.00059
1.0005
1.00062
0.998665
0.998662
0.998624
0.998528
0.998625
0.998627
0.998627
0.998682
0.998756
0.998836
0.998924
0.998983
0.999163
0.999333
0.999403
0.999554
0.999686
0.999815
0.99979
0.999884
0.999969
0.999914
0.999907
0.999943
0.999997
0.999893
0.999958
0.999988
0.999972
0.999922
0.999999
1.00008
1.00004
1.00015
1.00026
1.00036
1.0004
1.00053
1.00066
1.00067
1.00073
1.00079
1.00083
1.00085
1.00086
1.00087
1.00093
1.00086
1.00086
1.00084
0.998367
0.998112
0.998198
0.998292
0.998259
0.998193
0.998319
0.998328
0.998306
0.998432
0.998542
0.998567
0.998684
0.998917
0.99909
0.999141
0.999454
0.999635
0.999683
0.999758
0.999925
0.999939
0.999847
0.999982
0.999987
0.999909
0.999903
1.00004
0.999946
0.999956
1.00009
1.00015
1.00018
1.0003
1.00056
1.00057
1.00068
1.00085
1.00091
1.00091
1.00098
1.00107
1.00104
1.00105
1.00115
1.0011
1.00106
1.00114
1.00124
1.00103
0.997886
0.997916
0.998065
0.998052
0.99803
0.998045
0.99813
0.99812
0.998154
0.99808
0.998141
0.998292
0.99829
0.998362
0.9986
0.998892
0.998944
0.999191
0.99954
0.999621
0.999669
0.999849
0.999967
0.999889
0.999858
1.00003
0.999999
0.999899
1.00003
1.00016
1.00019
1.00023
1.00052
1.0007
1.00068
1.00091
1.00107
1.00108
1.00106
1.00118
1.00122
1.00115
1.00119
1.00121
1.00125
1.00128
1.00129
1.00126
1.00134
1.00139
0.997674
0.997933
0.998006
0.997841
0.998108
0.998204
0.998055
0.998019
0.998192
0.998118
0.997989
0.998064
0.998114
0.998022
0.998138
0.998399
0.998545
0.998769
0.999066
0.999375
0.999479
0.999672
0.999876
0.999821
0.99995
0.999924
1.00004
0.999984
1.00014
1.00031
1.00035
1.0006
1.00079
1.00094
1.00103
1.0012
1.00128
1.00119
1.00124
1.00131
1.00123
1.00121
1.00135
1.00136
1.00124
1.00132
1.00153
1.00139
1.0014
1.00158
0.997835
0.997839
0.998019
0.997984
0.998196
0.998105
0.998224
0.998254
0.998235
0.998254
0.998255
0.998046
0.998052
0.998082
0.997966
0.997896
0.998236
0.99837
0.998563
0.998874
0.999316
0.999466
0.999498
0.99991
0.999909
0.99994
0.999924
1.00031
1.00029
1.00036
1.00074
1.00094
1.00105
1.00112
1.0014
1.00131
1.00122
1.0013
1.00135
1.00121
1.00127
1.00135
1.00132
1.00138
1.00147
1.00142
1.00152
1.00152
1.00164
1.00154
0.997911
0.997692
0.998026
0.998069
0.998046
0.997899
0.998222
0.998337
0.998137
0.998265
0.998428
0.998334
0.998159
0.998163
0.998028
0.997924
0.997822
0.998051
0.998138
0.998424
0.998778
0.999097
0.999391
0.999562
0.999867
0.999935
1.00022
1.00032
1.00056
1.00078
1.00102
1.00122
1.00126
1.00146
1.00137
1.00133
1.0013
1.00135
1.00127
1.00127
1.00143
1.00155
1.00139
1.00151
1.00171
1.00163
1.00156
1.00161
1.00186
1.00166
0.997906
0.997896
0.997991
0.997706
0.997851
0.997968
0.997888
0.997915
0.998129
0.998248
0.998179
0.998393
0.998459
0.998235
0.998239
0.998165
0.997889
0.997718
0.998019
0.99806
0.9982
0.998663
0.999168
0.999338
0.999611
1.00011
1.00033
1.00046
1.00083
1.00123
1.00127
1.00128
1.00157
1.00147
1.00128
1.00132
1.00143
1.00127
1.00138
1.0016
1.00152
1.00158
1.00176
1.00178
1.00164
1.00178
1.0019
1.00169
1.00174
1.00181
0.998097
0.998068
0.998005
0.997766
0.997888
0.997988
0.99778
0.997731
0.997971
0.998045
0.997952
0.998162
0.99848
0.998407
0.998343
0.998328
0.998191
0.997971
0.997743
0.997854
0.997994
0.998255
0.998594
0.99916
0.999544
1.00003
1.00039
1.00086
1.00114
1.00129
1.00145
1.00158
1.00143
1.00135
1.00135
1.0014
1.00138
1.00137
1.00163
1.00175
1.00165
1.00171
1.00184
1.00182
1.00165
1.00175
1.00184
1.00173
1.00167
1.00171
0.998349
0.997823
0.998037
0.998257
0.997986
0.997807
0.997968
0.998006
0.99759
0.99775
0.997963
0.997929
0.99789
0.998368
0.998428
0.998299
0.998383
0.99831
0.997845
0.99775
0.997882
0.997917
0.998193
0.998787
0.9996
0.999822
1.00057
1.00113
1.00135
1.00143
1.0016
1.00163
1.00132
1.00135
1.00152
1.00143
1.00147
1.00186
1.00178
1.00168
1.00185
1.00201
1.00162
1.00171
1.00189
1.00177
1.00153
1.00177
1.00196
1.00156
0.998161
0.997918
0.998177
0.998137
0.998044
0.997938
0.998016
0.99805
0.997803
0.997749
0.997872
0.997752
0.997748
0.997955
0.998296
0.998341
0.998385
0.998317
0.998428
0.997947
0.99778
0.997881
0.998155
0.998638
0.999048
1.00015
1.00057
1.00106
1.0014
1.00158
1.00156
1.00125
1.00148
1.00149
1.00149
1.00155
1.0018
1.00188
1.00184
1.00178
1.00185
1.00184
1.00168
1.00177
1.0018
1.00179
1.00174
1.0017
1.00188
1.00177
0.997739
0.998124
0.998022
0.997531
0.997903
0.998185
0.997795
0.997826
0.998135
0.998025
0.997589
0.997784
0.997974
0.997646
0.997688
0.998297
0.99828
0.998353
0.998357
0.998442
0.997939
0.997986
0.998273
0.998395
0.999142
0.99987
1.0007
1.00091
1.00134
1.00157
1.00128
1.00146
1.00153
1.00157
1.00153
1.00197
1.00198
1.00165
1.00182
1.00203
1.00166
1.00162
1.0019
1.00195
1.00158
1.00186
1.00214
1.00176
1.00164
1.00204
0.997768
0.997636
0.997625
0.997616
0.997687
0.997816
0.997761
0.997892
0.997861
0.998093
0.997888
0.997853
0.997776
0.99775
0.997683
0.997762
0.998145
0.998259
0.99835
0.998375
0.998599
0.998256
0.99822
0.998778
0.999241
0.999692
1.00023
1.00102
1.00118
1.00109
1.00143
1.00155
1.00158
1.00163
1.00195
1.00192
1.00182
1.00188
1.00183
1.00178
1.00169
1.00191
1.00181
1.00191
1.00188
1.00195
1.00191
1.00201
1.002
1.00184
0.997845
0.99734
0.997572
0.998048
0.997692
0.997491
0.997862
0.998046
0.99761
0.997831
0.998226
0.997985
0.997715
0.997917
0.997999
0.997518
0.997738
0.998269
0.998286
0.99846
0.99872
0.99889
0.998762
0.99896
0.999313
0.999607
1.00011
1.00052
1.0007
1.00102
1.00137
1.00154
1.00151
1.00191
1.00206
1.00166
1.00174
1.00198
1.00175
1.00157
1.00193
1.00208
1.00167
1.00185
1.00212
1.00195
1.00159
1.00202
1.00217
1.00176
0.99734
0.997617
0.997673
0.997457
0.997594
0.997745
0.997438
0.997548
0.997727
0.997706
0.997631
0.997981
0.997989
0.997798
0.997735
0.99788
0.997648
0.997698
0.998239
0.998545
0.998699
0.999104
0.99953
0.999325
0.999337
0.999722
0.999875
0.999894
1.00049
1.00107
1.00123
1.00145
1.00196
1.00198
1.00172
1.00194
1.00195
1.00174
1.00177
1.00212
1.00196
1.00192
1.0021
1.00222
1.00186
1.0021
1.00222
1.00198
1.00192
1.00224
0.997209
0.99785
0.997632
0.997236
0.997622
0.997983
0.997374
0.997418
0.997863
0.997833
0.997414
0.997795
0.998222
0.997906
0.997797
0.998002
0.997976
0.997612
0.998008
0.998592
0.998984
0.99942
0.999791
0.999972
0.999676
0.999584
0.999435
0.999716
1.00021
1.00063
1.00106
1.00161
1.00195
1.00168
1.00171
1.00194
1.00184
1.00157
1.00195
1.00222
1.0018
1.00185
1.00219
1.00222
1.00171
1.00209
1.00234
1.00209
1.00182
1.00232
0.997859
0.997404
0.997447
0.998032
0.997655
0.997526
0.997924
0.998067
0.99757
0.997659
0.998024
0.997694
0.997596
0.998042
0.998084
0.997791
0.997814
0.99817
0.997928
0.998331
0.999218
0.999745
0.999973
1.0002
1.00024
0.999349
0.999316
0.999601
0.999825
1.00032
1.00119
1.00163
1.00144
1.00184
1.002
1.00171
1.00173
1.00216
1.00204
1.00171
1.00207
1.00223
1.0017
1.00187
1.00224
1.0021
1.00166
1.00233
1.00234
1.00184
0.997902
0.997319
0.997626
0.997992
0.997603
0.997412
0.997722
0.997987
0.997463
0.997461
0.997809
0.997735
0.997393
0.997709
0.998091
0.997872
0.997884
0.998123
0.998343
0.998355
0.999144
0.999916
1.00032
1.00041
0.999996
0.999828
0.999357
0.999293
0.999607
1.00032
1.00108
1.00121
1.00155
1.00186
1.00187
1.00168
1.00205
1.00228
1.002
1.00202
1.00233
1.00231
1.00191
1.0022
1.00233
1.00224
1.00191
1.00221
1.00242
1.00206
0.997217
0.998251
0.997764
0.99712
0.997531
0.998061
0.997189
0.997277
0.997946
0.9978
0.997297
0.997762
0.99817
0.99753
0.9977
0.998283
0.998258
0.9981
0.998506
0.999241
0.999219
0.999832
1.00056
1.00038
1.00013
0.999853
0.999517
0.999116
0.99961
1.00025
1.00027
1.00104
1.00161
1.00151
1.00148
1.00205
1.00223
1.0016
1.00202
1.00249
1.00199
1.00186
1.00252
1.0026
1.00177
1.00235
1.00271
1.00212
1.00165
1.00275
0.997709
0.997805
0.997422
0.9974
0.997484
0.997591
0.997467
0.997406
0.997607
0.997837
0.997719
0.997646
0.997762
0.997807
0.997577
0.997777
0.998183
0.998376
0.998723
0.999138
0.999738
0.999866
1.00011
1.00045
1.00022
0.999921
0.999504
0.999638
0.999712
0.999731
1.0004
1.00094
1.00132
1.00153
1.00197
1.00221
1.00197
1.0021
1.00226
1.00212
1.00201
1.00227
1.00231
1.00229
1.00231
1.0024
1.00237
1.00254
1.00219
1.0022
0.998152
0.996738
0.99721
0.998436
0.997393
0.996836
0.997888
0.99819
0.99699
0.997281
0.998117
0.997608
0.997073
0.997786
0.998154
0.997489
0.998001
0.998954
0.999084
0.99937
0.999969
1.00033
0.999947
1.00002
1.00028
0.999894
0.999957
0.99988
0.999385
0.999613
1.00025
1.00059
1.00072
1.00167
1.00222
1.00167
1.00203
1.00274
1.00228
1.00175
1.00255
1.00281
1.00168
1.00205
1.00295
1.00245
1.00153
1.00272
1.00308
1.00186
0.996854
0.997405
0.99741
0.997189
0.997165
0.997651
0.997291
0.997328
0.997486
0.997221
0.997332
0.997591
0.997592
0.997485
0.997674
0.998127
0.998057
0.998622
0.999526
0.999997
1.00015
1.00007
1.00011
0.999894
0.999866
1.00026
1.0002
0.999809
0.999746
0.99966
0.999747
1.00012
1.00103
1.00169
1.00161
1.0021
1.00241
1.0022
1.00218
1.0025
1.00257
1.00232
1.00258
1.00267
1.00214
1.00269
1.00276
1.00243
1.00238
1.00313
0.996563
0.998154
0.997672
0.996354
0.997511
0.998457
0.996976
0.996796
0.997999
0.99804
0.996881
0.997436
0.998199
0.997628
0.997381
0.998106
0.998616
0.998539
0.999432
1.00034
1.00018
1
0.999966
0.999745
0.999796
1.00027
1.00039
1.00009
0.999972
0.999715
0.999437
1.00026
1.00118
1.00117
1.00165
1.0024
1.00227
1.00163
1.00235
1.00291
1.00184
1.00197
1.00306
1.00286
1.00158
1.00247
1.00336
1.00229
1.00184
1.00321
0.997642
0.996804
0.996754
0.99793
0.997135
0.996682
0.997511
0.997648
0.996848
0.99737
0.997997
0.99715
0.997167
0.997749
0.997757
0.997585
0.998261
0.999355
0.999562
1.00003
1.00061
1.00026
0.999753
0.99974
0.999989
1.00011
1.00032
1.00041
0.9999
0.999366
0.999772
1.00024
1.00041
1.00145
1.00224
1.00207
1.00205
1.00264
1.00269
1.0019
1.00251
1.00309
1.00224
1.00237
1.0033
1.00281
1.00186
1.00328
1.00314
1.00214
0.997744
0.996051
0.996881
0.99812
0.997051
0.996275
0.99756
0.998019
0.996689
0.997074
0.99797
0.997685
0.996858
0.997629
0.998167
0.997795
0.998432
0.999471
1.00006
1.0001
1.00036
1.00028
0.999784
0.999788
0.999979
1.00011
1.00036
1.00043
0.999897
0.999728
0.999909
0.999837
1.00034
1.0014
1.00204
1.00163
1.00216
1.00295
1.00221
1.00199
1.00287
1.00311
1.00202
1.00246
1.00348
1.00285
1.00202
1.00306
1.00373
1.00235
0.996041
0.998468
0.997722
0.995957
0.99729
0.998431
0.996629
0.996635
0.998258
0.997618
0.996475
0.997359
0.998331
0.997224
0.99739
0.998593
0.999023
0.99911
0.999921
1.00055
1.00006
0.999873
1.00012
0.999876
0.999817
1.00025
1.00034
1.00013
1.0003
1.00014
0.999546
0.999992
1.00083
1.00097
1.00119
1.00232
1.00264
1.00162
1.00248
1.00341
1.00238
1.00172
1.00339
1.00339
1.00152
1.00285
1.0041
1.00228
1.00162
1.00417
0.997048
0.997888
0.99702
0.996255
0.996988
0.997814
0.996813
0.99655
0.997538
0.997443
0.996642
0.99711
0.997846
0.997732
0.997325
0.998268
0.999113
0.999333
0.999881
1.0003
1.00012
0.999909
1.00003
1.00007
1.00001
1.00009
1.0001
1.00021
1.00038
1.00012
0.999891
1.00025
1.00073
1.00084
1.00159
1.0025
1.00215
1.00203
1.00284
1.00324
1.00253
1.00252
1.00333
1.00307
1.00241
1.00318
1.00358
1.00324
1.00251
1.00293
0.998743
0.995134
0.996362
0.999124
0.996958
0.995575
0.997975
0.998616
0.996023
0.996848
0.998562
0.997419
0.996738
0.997868
0.998722
0.998075
0.998911
1.00026
1.00024
1.00007
1.00023
1.00015
0.99991
1.00016
1.00031
0.999908
0.999961
1.00027
1.00012
1.00008
1.00033
1.00016
0.99989
1.00106
1.00193
1.00127
1.00195
1.00316
1.00261
1.00147
1.00312
1.00399
1.00144
1.00207
1.00457
1.00306
1.0011
1.00391
1.0049
1.00145
0.996334
0.996656
0.997171
0.997122
0.99668
0.996843
0.996916
0.997161
0.99713
0.996732
0.99716
0.997266
0.997085
0.997253
0.997842
0.998664
0.999055
0.999629
1.00013
1.00015
0.999952
0.999898
1.00009
1.00016
1.00005
1.00002
1.00003
1.00012
1.00034
1.00043
1.00034
1.00022
1.00058
1.00114
1.00141
1.00199
1.00265
1.00285
1.00263
1.00282
1.00326
1.0029
1.00302
1.00336
1.00315
1.00347
1.00342
1.00307
1.00335
1.00438
0.995042
0.999704
0.997905
0.99396
0.997281
0.999251
0.995878
0.995785
0.998478
0.998219
0.995949
0.997342
0.998634
0.997426
0.997601
0.999326
0.999965
0.999546
1.00024
1.00068
0.999923
0.999786
1.00028
1.00014
0.99995
1.00019
1.00003
0.999912
1.00052
1.00065
0.999972
1.0003
1.00098
1.00048
1.00077
1.00235
1.0026
1.00133
1.00259
1.00409
1.00197
1.00152
1.00432
1.00419
1.00097
1.00301
1.00609
1.0023
1.00105
1.00529
0.998111
0.995877
0.995539
0.998115
0.996563
0.995856
0.997092
0.997181
0.99655
0.996702
0.997806
0.996924
0.99679
0.997633
0.998199
0.998586
0.999244
1.00011
1.00033
1.0001
1.00001
1.00008
1.0001
1.00005
1.00001
1.00002
0.999956
1.00002
1.00027
1.0005
1.00061
1.00047
1.0005
1.00111
1.00168
1.00193
1.00231
1.0031
1.00314
1.00231
1.00334
1.00364
1.00294
1.00298
1.00445
1.00389
1.00202
1.00514
1.00485
1.00202
0.998857
0.993175
0.996462
1
0.996611
0.994344
0.997998
0.998693
0.995522
0.996583
0.998583
0.997516
0.996408
0.997996
0.999095
0.998599
0.999379
1.00058
1.00048
1.00002
1.00021
1.00027
0.999937
0.999951
1.00003
0.999906
1.00008
1.00029
1.00011
1.00041
1.00095
1.00056
1.00016
1.00118
1.00189
1.00108
1.00192
1.00362
1.00267
1.00142
1.00346
1.00467
1.00151
1.00211
1.00585
1.00376
1.00074
1.00432
1.00692
1.00197
0.993059
0.999105
0.997374
0.993691
0.996435
0.998866
0.995544
0.995144
0.997811
0.997317
0.996071
0.996828
0.998174
0.997417
0.997584
0.999257
0.999987
1.00009
1.00047
1.00056
1.00005
0.999971
1.00023
0.999976
0.999797
1.00009
1.00011
0.999923
1.00031
1.00063
1.00048
1.00063
1.00094
1.00083
1.00111
1.00252
1.00278
1.00196
1.00315
1.00408
1.00286
1.00217
1.00494
1.0047
1.00153
1.00402
1.00706
1.00287
1.00155
1.00865
0.996013
1.0002
0.996969
0.993183
0.997362
0.99907
0.995803
0.995879
0.998033
0.997637
0.996329
0.997492
0.998348
0.997619
0.998046
0.999484
1.0001
1.00018
1.00067
1.00056
0.999911
0.999931
1.00011
0.999537
0.999406
1.00005
1.00022
1
1.0005
1.00089
1.00056
1.00072
1.00124
1.00091
1.00104
1.0024
1.00277
1.00173
1.00261
1.00403
1.00257
1.00184
1.00434
1.00466
1.00143
1.00316
1.00722
1.00361
1.00172
1.00503
1.00031
0.98868
0.993683
1.00109
0.996024
0.992824
0.997477
0.998551
0.995011
0.995428
0.998349
0.997196
0.996063
0.997772
0.998925
0.99872
0.999581
1.00119
1.00109
1.00029
1.00024
1.00031
0.999996
0.999878
0.99989
0.999836
1.00011
1.00032
1.00015
1.00043
1.00097
1.00061
1.00027
1.00143
1.00206
1.00149
1.0023
1.00416
1.00314
1.00158
1.00442
1.00526
1.00169
1.00246
1.00758
1.00451
0.999496
1.00763
1.01119
0.998835
0.993655
0.99356
0.996399
0.998086
0.995505
0.996146
0.997408
0.99725
0.996321
0.997232
0.997634
0.997069
0.997438
0.998394
0.998666
0.999097
1.0003
1.00111
1.00081
1.00046
1.00025
0.999829
0.999448
0.999583
0.999599
0.999565
0.999951
1.00049
1.00048
1.00058
1.00104
1.00103
1.00055
1.0011
1.00207
1.00209
1.00205
1.00305
1.00332
1.0023
1.00277
1.00415
1.00313
1.00254
1.00439
1.00556
1.00228
1.00449
1.00789
1.00859
0.992743
1.00693
0.996693
0.990171
0.997019
1.00026
0.9945
0.994681
0.998591
0.9977
0.995247
0.997015
0.99847
0.997239
0.997574
0.999754
1.00041
1.00038
1.00117
1.00136
1.00034
0.999884
0.999836
0.999369
0.999301
0.999978
1.0001
1.0001
1.00078
1.00088
1.0002
1.00074
1.0015
1.00071
1.00084
1.00326
1.00328
1.00143
1.00325
1.00541
1.00203
1.00101
1.00647
1.00574
0.998916
1.00454
1.01204
1.00088
0.996492
1.0229

VECTORS velocity double
1.10944e-07 -3.88695e-07 0
-1.48701e-07 -6.86793e-07 0
1.29526e-06 1.36988e-07 0
-3.90402e-07 -1.09727e-06 0
6.47893e-07 -1.15944e-06 0
3.12881e-06 4.17663e-07 0
3.28384e-06 -3.25075e-07 0
-4.42778e-07 -1.99265e-06 0
3.36255e-06 3.44523e-07 0
3.84474e-06 1.02484e-06 0
-5.16402e-07 -2.02055e-06 0
-7.12761e-07 -4.57846e-07 0
4.6418e-06 1.88717e-06 0
1.24571e-06 -1.14276e-06 0
2.98729e-07 -2.16428e-06 0
5.12755e-06 2.52028e-06 0
6.66845e-06 -6.38432e-07 0
2.97244e-06 -5.17449e-06 0
6.19998e-06 1.51676e-06 0
8.64943e-06 2.80545e-06 0
5.28662e-06 -8.34806e-06 0
3.59066e-06 -2.50289e-06 0
7.23046e-06 7.54918e-06 0
6.76061e-06 -4.03266e-06 0
2.94174e-06 -7.76452e-06 0
3.31123e-06 8.27095e-06 0
7.16214e-06 4.09423e-06 0
7.08839e-06 -7.29631e-06 0
3.71732e-06 3.00283e-06 0
5.95911e-06 8.4354e-06 0
9.112e-06 -2.91537e-06 0
6.24392e-06 -1.36316e-06 0
3.31932e-06 5.30217e-06 0
7.30863e-06 4.0422e-07 0
5.45158e-06 -2.7678e-06 0
3.0564e-07 2.10634e-06 0
1.57321e-06 9.61344e-07 0
4.95764e-06 -2.29084e-06 0
-8.45242e-07 2.03053e-07 0
-8.33476e-07 1.83925e-06 0
3.67698e-06 -1.36491e-06 0
2.87068e-06 -6.59153e-07 0
-1.30107e-06 1.83174e-06 0
2.58571e-06 2.52725e-07 0
2.38858e-06 -6.85143e-07 0
1.27072e-07 1.20802e-06 0
-9.64332e-07 1.12309e-06 0
1.4333e-06 -1.51152e-07 0
-2.26832e-07 7.56016e-07 0
3.06246e-07 7.06122e-07 0
1.36449e-06 1.71825e-06 0
2.91144e-07 4.4737e-07 0
-4.38229e-07 -7.46411e-07 0
-6.6638e-07 -9.4202e-07 0
2.95588e-06 1.28971e-06 0
6.5449e-07 2.41733e-08 0
3.6598e-07 -1.18735e-06 0
3.99119e-06 1.60428e-06 0
5.07623e-06 -2.20015e-07 0
4.43344e-07 -2.72482e-06 0
4.27644e-06 4.42242e-07 0
5.99244e-06 6.40382e-09 0
3.05816e-06 -2.42327e-06 0
2.94702e-06 1.49265e-06 0
5.55531e-06 -2.85224e-07 0
5.01956e-06 2.42759e-07 0
6.92931e-06 3.52812e-06 0
4.91426e-06 -1.37901e-06 0
5.09294e-06 -2.14073e-06 0
1.22233e-05 6.03557e-06 0
1.14931e-05 -1.86688e-06 0
4.04684e-06 -5.37028e-06 0
1.23926e-05 4.0608e-06 0
1.88151e-05 5.61462e-07 0
7.78452e-06 -5.46697e-06 0
7.41716e-06 4.29122e-06 0
1.84513e-05 1.04916e-06 0
1.25671e-05 -3.76545e-06 0
4.024e-06 3.817e-06 0
1.08654e-05 2.35334e-06 0
1.19546e-05 -4.88251e-06 0
5.21069e-06 1.41954e-06 0
4.63774e-06 1.06251e-06 0
6.48059e-06 -2.72623e-06 0
5.14713e-06 -2.1282e-07 0
5.6236e-06 -1.55529e-07 0
2.70264e-06 -1.27292e-06 0
3.03692e-06 2.52135e-06 0
6.33431e-06 -3.47987e-07 0
4.29181e-06 -6.43199e-07 0
4.67183e-07 2.72549e-06 0
5.384e-06 2.45015e-08 0
4.48911e-06 -1.79397e-06 0
5.2187e-07 1.2023e-06 0
1.48537e-06 4.96373e-08 0
3.49939e-06 -1.2934e-06 0
1.50025e-07 9.7543e-07 0
-2.71832e-07 7.72629e-07 0
9.23521e-07 7.48722e-08 0
9.4298e-07 -1.40331e-06 0
2.65571e-07 4.21022e-06 0
-7.34322e-07 6.77948e-07 0
-4.28798e-07 9.01618e-07 0
1.64345e-06 2.1735e-06 0
5.64781e-07 2.29313e-07 0
-1.9962e-06 -1.47049e-06 0
2.5891e-06 3.10921e-06 0
9.90526e-07 2.66916e-06 0
-3.47551e-06 -3.84819e-06 0
2.68601e-07 1.49859e-06 0
4.28735e-06 5.1205e-06 0
-1.3697e-06 -3.83867e-06 0
5.17401e-07 -4.25866e-06 0
7.17223e-06 9.06784e-06 0
3.38154e-06 1.58483e-06 0
-2.64305e-06 -1.13201e-05 0
3.82542e-06 4.95663e-06 0
5.39888e-06 1.54167e-05 0
-4.03518e-06 -1.19353e-05 0
-3.44433e-06 -8.43896e-06 0
4.03467e-06 2.1263e-05 0
-1.35856e-08 3.20868e-06 0
-2.80193e-06 -2.13957e-05 0
1.59232e-06 1.07788e-05 0
1.56477e-06 1.76783e-05 0
1.04907e-06 -1.8459e-05 0
1.43595e-06 -1.00033e-05 0
-2.10224e-06 2.08729e-05 0
2.13437e-08 -4.13452e-06 0
3.52814e-06 -2.05403e-05 0
-3.17857e-06 8.50645e-06 0
-3.85673e-06 1.11015e-05 0
4.95713e-06 -1.5061e-05 0
3.39346e-06 -4.6078e-06 0