# vtk DataFile Version 4.0
SiwiRVisFile
ASCII
DATASET STRUCTURED_POINTS
DIMENSIONS 50 50 1
ORIGIN 0 0 0
SPACING 1 1 1
POINT_DATA 2500


SCALARS flags double 1
LOOKUP_TABLE default
1
1
1
1
1
1
1
1
1
1
1
1
1
1
1
1
1
1
1
1
1
1
1
1
1
1
1
1
1
1
1
1
1
1
1
1
1
1
1
1
1
1
1
1
1
1
1
1
1
1
1
1
1
1
1
1
1
1
1
1
1
1
1
1
1
1
1
1
1
1
1
1
1
1
1
1
1
1
1
1
1
1
1
1
1
1
1
1
1
1
1
1
1
1
1
1
1
1
1
1
1
1
1
1
1
1
1
1
1
1
1
1
1
1
1
1
1
1
1
1
1
1
1
1
1
1
1
1
1
1
1
1
1
1
1
1
1
1
1
1
1
1
1
1
1
1
1
1
1
1
1
1
1
1
1
1
1
1
1
1
1
1
1
1
1
1
1
1
1
1
1
1
1
1
1
1
1
1
1
1
1
1
1
1
1
1
1
1
1
1
1
1
1
1
1
1
1
1
1
1
1
1
1
1
1
1
1
1
1
1
1
1
1
1
1
1
1
1
1
1
1
1
1
1
1
1
1
1
1
1
1
1
1
1
1
1
1
1
1
1
1
1
1
1
1
1
1
1
1
1
1
1
1
1
1
1
1
1
1
1
1
1
1
1
1
1
1
1
1
1
1
1
1
1
1
1
1
1
1
1
1
1
1
1
1
1
1
1
1
1
1
1
1
1
1
1
1
1
1
1
1
1
1
1
1
1
1
1
1
1
1
1
1
1
1
1
1
1
1
1
1
1
1
1
1
1
1
1
1
1
1
1
1
1
1
1
1
1
1
1
1
1
1
1
1
1
1
1
1
1
1
1
1
1
1
1
1
1
1
1
1
1
1
1
1
1
1
1
1
1
1
1
1
1
1
1
1
1
1
1
1
1
1
1
1
1
1
1
1
1
1
1
1
1
1
1
1
1
1
1
1
1
1
1
1
1
1
1
1
1
1
1
1
1
1
1
1
1
1
1
1
1
1
1
1
1
1
1
1
1
1
1
1
1
1
1
1
1
1
1
1
1
1
1
1
1
1
1
1
1
1
1
1
1
1
1
1
1
1
1
1
1
1
1
1
1
1
1
1
1
1
1
1
1
1
1
1
1
1
1
1
1
1
1
1
1
1
1
1
1
1
1
1
1
1
1
1
1
1
1
1
1
1
1
1
1
1
1
1
1
1
1
1
1
1
1
1
1
1
1
1
1
1
1
1
1
1
1
1
1
1
1
1
1
1
1
1
1
1
1
1
1
1
1
1
1
1
1
1
1
1
1
1
1
1
1
1
1
1
1
1
1
1
1
1
1
1
1
1
1
1
1
1
1
1
1
1
1
1
1
1
1
1
1
1
1
1
1
1
1
1
1
1
1
1
1
1
1
1
1
1
1
1
1
1
1
1
1
1
1
1
1
1
1
1
1
1
1
1
1
1
1
1
1
1
1
1
1
1
1
1
1
1
1
1
1
1
1
1
1
1
1
1
1
1
1
1
1
1
1
1
1
1
1
1
1
1
1
1
1
1
1
1
1
1
1
1
1
1
1
1
1
1
1
1
1
1
1
1
1
1
1
1
1
1
1
1
1
1
1
1
1
1
1
1
1
1
1
1
1
1
1
1
1
1
1
1
1
1
1
1
1
1
1
1
1
1
1
1
1
1
1
1
1
1
1
1
1
1
1
1
1
1
1
1
1
1
1
1
1
1
1
1
1
1
1
1
1
1
1
1
1
1
1
1
1
1
1
1
1
1
1
1
1
1
1
1
1
1
1
1
1
1
1
1
1
1
1
1
1
1
1
1
1
1
1
1
1
1
1
1
1
1
1
1
1
1
1
1
1
1
1
1
1
1
1
1
1
1
1
1
1
1
1
1
1
1
1
1
1
1
1
1
1
1
1
1
1
1
1
1
1
1
1
1
1
1
1
1
1
1
1
1
1
1
1
1
1
1
1
1
1
1
1
1
1
1
1
1
1
1
1
1
1
1
1
1
1
1
1
1
1
1
1
1
1
1
1
1
1
1
1
1
1
1
1
1
1
1
1
1
1
1
1
1
1
1
1
1
1
1
1
1
1
1
1
1
1
1
1
1
1
1
1
1
1
1
1
1
1
1
1
1
1
1
1
1
1
1
1
1
1
1
1
1
1
1
1
1
1
1
1
1
1
1
1
1
1
1
1
1
1
1
1
1
1
1
1
1
1
1
1
1
1
1
1
1
1
1
1
1
1
1
1
1
1
1
1
1
1
1
1
1
1
1
1
1
1
1
1
1
1
1
1
1
1
1
1
1
1
1
1
1
1
1
1
1
1
1
1
1
1
1
1
1
1
1
1
1
1
1
1
1
1
1
1
1
1
1
1
1
1
1
1
1
1
1
1
1
1
1
1
1
1
1
1
1
1
1
1
1
1
1
1
1
1
1
1
1
1
1
1
1
1
1
1
1
1
1
1
1
1
1
1
1
1
1
1
1
1
1
1
1
1
1
1
1
1
1
1
1
1
1
1
1
1
1
1
1
1
1
1
1
1
1
1
1
1
1
1
1
1
1
1
1
1
1
1
1
1
1
1
1
1
1
1
1
1
1
1
1
1
1
1
1
1
1
1
1
1
1
1
1
1
1
1
1
1
1
1
1
1
1
1
1
1
1
1
1
1
1
1
1
1
1
1
1
1
1
1
1
1
1
1
1
1
1
1
1
1
1
1
1
1
1
1
1
1
1
1
1
1
1
1
1
1
1
1
1
1
1
1
1
1
1
1
1
1
1
1
1
1
1
1
1
1
1
1
1
1
1
1
1
1
1
1
1
1
1
1
1
1
1
1
1
1
1
1
1
1
1
1
1
1
1
1
1
1
1
1
1
1
1
1
1
1
1
1
1
1
1
1
1
1
1
1
1
1
1
1
1
1
1
1
1
1
1
1
1
1
1
1
1
1
1
1
1
1
1
1
1
1
1
1
1
1
1
1
1
1
1
1
1
1
1
1
1
1
1
1
1
1
1
1
1
1
1
1
1
1
1
1
1
1
1
1
1
1
1
1
1
1
1
1
1
1
1
1
1
1
1
1
1
1
1
1
1
1
1
1
1
1
1
1
1
1
1
1
1
1
1
1
1
1
1
1
1
1
1
1
1
1
1
1
1
1
1
1
1
1
1
1
1
1
1
1
1
1
1
1
1
1
1
1
1
1
1
1
1
1
1
1
1
1
1
1
1
1
1
1
1
1
1
1
1
1
1
1
1
1
1
1
1
1
1
1
1
1
1
1
1
1
1
1
1
1
1
1
1
1
1
1
1
1
1
1
1
1
1
1
1
1
1
1
1
1
1
1
1
1
1
1
1
1
1
1
1
1
1
1
1
1
1
1
1
1
1
1
1
1
1
1
1
1
1
1
1
1
1
1
1
1
1
1
1
1
1
1
1
1
1
1
1
1
1
1
1
1
1
1
1
1
1
1
1
1
1
1
1
1
1
1
1
1
1
1
1
1
1
1
1
1
1
1
1
1
1
1
1
1
1
1
1
1
1
1
1
1
1
1
1
1
1
1
1
1
1
1
1
1
1
1
1
1
1
1
1
1
1
1
1
1
1
1
1
1
1
1
1
1
1
1
1
1
1
1
1
1
1
1
1
1
1
1
1
1
1
1
1
1
1
1
1
1
1
1
1
1
1
1
1
1
1
1
1
1
1
1
1
1
1
1
1
1
1
1
1
1
1
1
1
1
1
1
1
1
1
1
1
1
1
1
1
1
1
1
1
1
1
1
1
1
1
1
1
1
1
1
1
1
1
1
1
1
1
1
1
1
1
1
1
1
1
1
1
1
1
1
1
1
1
1
1
1
1
1
1
1
1
1
1
1
1
1
1
1
1
1
1
1
1
1
1
1
1
1
1
1
1
1
1
1
1
1
1
1
1
1
1
1
1
1
1
1
1
1
1
1
1
1
1
1
1
1
1
1
1
1
1
1
1
1
1
1
1
1
1
1
1
1
1
1
1
1
1
1
1
1
1
1
1
1
1
1
1
1
1
1
1
1
1
1
1
1
1
1
1
1
1
1
1
1
1
1
1
1
1
1
1
1
1
1
1
1
1
1
1
1
1
1
1
1
1
1
1
1
1
1
1
1
1
1
1
1
1
1
1
1
1
1
1
1
1
1
1
1
1
1
1
1
1
1
1
1
1
1
1
1
1
1
1
1
1
1
1
1
1
1
1
1
1
1
1
1
1
1
1
1
1
1
1
1
1
1
1
1
1
1
1
1
1
1
1
1
1
1
1
1
1
1
1
1
1
1
1
1
1
1
1
1
1
1
1
1
1
1
1
1
1
1
1
1
1
1
1
1
1
1
1
1
1
1
1
1
1
1
1
1
1
1
1
1
1
1
1
1
1
1
1
1
1
1
1
1
1
1
1
1
1
1
1
1
1
1
1
1
1
1
1
1
1
1
1
1
1
1
1
1
1
1
1
1
1
1
1
1
1
1
1
1
1
1
1
1
1
1
1
1
1
1
1
1
1
1
1
1
1
1
1
1
1
1
1
1
1
1
1
1
1
1
1
1
1
1
1
1
1
1
1
1
1
1
1
1
1
1
1
1
1
1
1
1
1
1
1
1
1
1
1
1
1
1
1
1
1
1
1
1
1
1
1
1
1
1
1
1
1
1
1
1
1
1
1
1
1
1
1
1
1
1
1
1
1
1
1
1
1
1
1
1
1
1
1
1
1
1
1
1
1
1
1
1
1
1
1
1
1
1
1
1
1
1
1
1
1
1
1
1
1
1
1
1
1
1
1
1
1
1
1
1
1
1
1
1
1
1
1
1
1
1
1
1
1
1
1
1
1
1
1
1
1
1
1
1
1
1
1
1
1
1
1
1
1
1
1
1
1
1
1
1
1
1
1
1
1
1
1
1
1
1
1
1
1
1
1
1
1
1
1
1
1
1
1
1
1
1
1
1
1
1
1
1
1
1
1
1
1
1
1
1
1
1
1
1
1
1
1
1
1
1
1
1
1
1
1
1
1
1
1
1
1
1
1
1
1
1
1
1
1
1
1
1
1
1
1
1
1
1
1
1
1
1
1
1
1
1
1
1
1
1
1
1
1
1
1
1
1
1
1
1
1
1
1
1
1
1
1
1
1
1
1
1
1
1
1
1
1
1
1
1
1
1
1
1
1
1
1
1
1
1
1
1
1
1
1
1
1
1
1
1
1
1
1
1
1
1
1
1
1
1
1
1
1
1
1
1
1
1
1
1
1
1
1
1
1
1
1
1
1
1
1
1
1
1
1
1
1
1
1
1
1
1
1
1
1
1
1
1
1
1
1
1
1
1
1
1
1
1
1
1
1
1
1
1
1
1
1
1
1
1
1
1
1
1
1
1
1
1
1
1
1
1
1
1
1
1
1
1
1
1
1
1
1
1
1
1
1
1
1
1
1
1
1
1
1
1
1
1
1
1
1
1
1
1
1
1
1
1
1
1
1
1
1
1
1
1
1
1
1
1
1
1
1
1
1
1
1
1
1
1
1
1
1
1
1
1
1
1
1
1
1
1
1
1
1
1
1
1
1
1
1
1
1
1
1
1
1
1
1
1
1
1
1
1
1
1
1
1
1
1
1
1
1
1
1
1
1
1
1
1
1
1
1
1
1
1
1
1
1
1
1
1
1
1
1
1
1
1
1
1

SCALARS density double 1
LOOKUP_TABLE default
0.999958
0.999957
0.999957
0.999957
0.999957
0.999957
0.999957
0.999957
0.999957
0.999957
0.999958
0.999957
0.999956
0.999958
0.999957
0.999956
0.999957
0.999958
0.999957
0.999956
0.999958
0.999958
0.999956
0.999957
0.999958
0.999957
0.999957
0.999958
0.999957
0.999956
0.999958
0.999957
0.999956
0.999957
0.999958
0.999956
0.999956
0.999957
0.999957
0.999956
0.999957
0.999957
0.999957
0.999957
0.999957
0.999957
0.999957
0.999958
0.999957
0.999958
0.999957
0.999958
0.999957
0.999957
0.999957
0.999957
0.999957
0.999957
0.999957
0.999958
0.999957
0.999956
0.999958
0.999958
0.999955
0.999956
0.999959
0.999956
0.999955
0.999959
0.999959
0.999955
0.999957
0.999958
0.999957
0.999956
0.999955
0.999957
0.999959
0.999955
0.999955
0.999959
0.999958
0.999955
0.999958
0.99996
0.999956
0.999957
0.999959
0.999958
0.999957
0.999957
0.999958
0.999957
0.999957
0.999958
0.999958
0.999957
0.999957
0.999955
0.999957
0.999958
0.999957
0.999957
0.999957
0.999957
0.999957
0.999957
0.999958
0.999956
0.999955
0.999958
0.999959
0.999954
0.999956
0.999962
0.999957
0.999952
0.999962
0.999962
0.999951
0.999956
0.999965
0.999954
0.99995
0.999963
0.99996
0.999949
0.999958
0.999964
0.999952
0.999952
0.999963
0.999958
0.999952
0.999959
0.999961
0.999955
0.999956
0.999959
0.999957
0.999956
0.999957
0.999957
0.999956
0.999957
0.999957
0.999957
0.999958
0.999957
0.999957
0.999956
0.999957
0.999957
0.999958
0.999957
0.999957
0.999958
0.999957
0.999954
0.999958
0.999961
0.999953
0.999955
0.999966
0.999956
0.999948
0.999963
0.999962
0.999946
0.999956
0.999963
0.999952
0.999955
0.99996
0.999954
0.999961
0.999963
0.999951
0.999959
0.999969
0.999952
0.99995
0.999966
0.999958
0.999948
0.999959
0.999961
0.999953
0.999955
0.99996
0.999957
0.999955
0.999957
0.999957
0.999957
0.999957
0.999958
0.999956
0.999958
0.999957
0.999957
0.999957
0.999958
0.999956
0.999956
0.999958
0.999957
0.999953
0.999958
0.999962
0.999952
0.999953
0.999969
0.999958
0.999941
0.999965
0.999974
0.999937
0.999946
0.999987
0.999956
0.999923
0.999973
0.999986
0.999928
0.999941
0.999991
0.999958
0.999926
0.999968
0.999977
0.999939
0.999948
0.999973
0.999956
0.999945
0.999961
0.999963
0.999952
0.999956
0.999961
0.999958
0.999956
0.999958
0.999957
0.999957
0.999957
0.999957
0.999957
0.999955
0.999957
0.999957
0.999957
0.999956
0.999959
0.999957
0.999953
0.999959
0.999964
0.999951
0.999952
0.999972
0.999955
0.99994
0.999971
0.999965
0.999934
0.999966
0.999978
0.999934
0.999953
0.999991
0.999944
0.999931
0.999985
0.999966
0.999922
0.999964
0.99998
0.999933
0.999949
0.999982
0.999948
0.999943
0.999976
0.99996
0.999943
0.999963
0.999964
0.999951
0.999955
0.999961
0.999957
0.999955
0.999957
0.999957
0.999956
0.999958
0.999957
0.999955
0.999956
0.999956
0.999956
0.999959
0.999957
0.999954
0.999959
0.999964
0.999952
0.99995
0.999971
0.999963
0.999932
0.999959
0.999989
0.999938
0.999922
0.999994
0.999984
0.999904
0.999952
1.00002
0.999934
0.999906
1.00001
0.999985
0.999897
0.999959
1.00001
0.999934
0.999919
0.999991
0.999977
0.999925
0.999953
0.999982
0.999951
0.999941
0.999963
0.999961
0.999949
0.999955
0.999961
0.999956
0.999956
0.999958
0.999958
0.999958
0.99996
0.999952
0.999953
0.999955
0.999956
0.999957
0.999952
0.999958
0.999965
0.999948
0.99995
0.999978
0.999948
0.999931
0.999991
0.999964
0.999904
0.999986
1.00001
0.999896
0.999934
1.00003
0.999944
0.999887
0.999992
1.00001
0.999902
0.999928
1.00003
0.999963
0.999888
0.999984
1.00001
0.999906
0.999931
1.00001
0.999947
0.999923
0.999984
0.999966
0.999936
0.999964
0.999967
0.99995
0.999956
0.999962
0.999957
0.999958
0.99996
0.999961
0.999964
0.999946
0.99995
0.999952
0.999951
0.999952
0.999956
0.999961
0.999954
0.999947
0.999963
0.999971
0.999938
0.999939
0.999988
0.999969
0.999919
0.999957
1
0.999939
0.99992
0.999993
0.999972
0.999909
0.999967
0.999995
0.999923
0.999939
1
0.99995
0.999922
0.999986
0.999978
0.999921
0.999952
0.999992
0.999952
0.999928
0.999971
0.999979
0.999945
0.99995
0.999967
0.999961
0.999953
0.999959
0.999962
0.999963
0.999961
0.999964
0.999965
0.999944
0.999943
0.999947
0.999943
0.999952
0.999964
0.999943
0.999946
0.999992
0.999943
0.999907
1.00002
0.999988
0.999861
0.999978
1.00005
0.999889
0.999906
1.00004
0.999966
0.999888
0.999982
1.00001
0.999926
0.999919
0.999999
0.999982
0.9999
0.999939
1.00002
0.999944
0.999882
1.00001
1.00002
0.999867
0.99994
1.00005
0.999924
0.999899
1.00001
0.999969
0.999922
0.999967
0.99997
0.99995
0.999963
0.99997
0.999966
0.999971
0.999969
0.999945
0.999934
0.99994
0.999942
0.999941
0.999953
0.99995
0.99994
0.999971
0.999972
0.999926
0.99995
0.999995
0.999957
0.999921
0.999972
0.999979
0.999927
0.999956
0.99998
0.999945
0.999953
0.99997
0.999956
0.999952
0.999961
0.99996
0.999948
0.999957
0.999965
0.999941
0.999957
0.999975
0.99994
0.99995
0.99998
0.999953
0.99993
0.99996
0.999979
0.999947
0.999945
0.999969
0.999964
0.999961
0.999972
0.999971
0.999974
0.999977
0.999969
0.99993
0.999917
0.99992
0.999943
0.999911
0.999911
0.999993
0.999948
0.99986
1
1.00004
0.999857
0.999929
1.00005
0.999924
0.999898
1
0.999981
0.999918
0.99994
0.999992
0.999949
0.999913
0.999971
0.999985
0.999925
0.999946
1
0.99996
0.999921
0.999979
0.999992
0.99993
0.999919
1.00001
0.999985
0.999868
0.999984
1.00005
0.999882
0.999917
1.00005
0.999964
0.999924
1
0.999997
0.99997
0.999989
0.999992
0.999979
0.999898
0.999915
0.999878
0.999906
0.999926
0.999874
0.9999
0.999978
0.999937
0.999892
0.999958
0.999994
0.999932
0.999929
0.999982
0.999954
0.999945
0.999969
0.999953
0.999966
0.999959
0.999947
0.999967
0.999952
0.99995
0.999962
0.999966
0.999945
0.999963
0.999961
0.999947
0.999953
0.999951
0.999971
0.999949
0.999935
0.99999
0.999967
0.999919
0.999966
1.00001
0.999965
0.999943
1.00001
1.00003
0.999984
1
1.00002
0.999994
1.00001
0.999839
0.999903
0.999847
0.999803
0.99991
0.999917
0.99978
0.999876
1.00002
0.99988
0.999881
1.00001
0.999954
0.999912
0.999962
0.999987
0.999957
0.999909
0.999996
0.999992
0.999891
0.999959
1.00003
0.999933
0.999897
1.00002
0.999973
0.999878
0.99996
1.00002
0.999915
0.999919
1.00001
0.99995
0.99992
0.999954
0.999996
0.999952
0.999903
1.00002
1.00002
0.999899
1.00003
1.00011
0.999986
0.999997
1.00009
1.00005
1
1.00006
0.999775
0.999776
0.999818
0.999756
0.999701
0.999814
0.999856
0.999772
0.9998
0.999915
0.999923
0.999868
0.999945
0.999975
0.999931
0.999945
0.999963
0.999968
0.999911
0.999943
1
0.999933
0.999917
0.999983
0.999972
0.999939
0.999932
0.999994
0.99998
0.999906
0.999968
1
0.999939
0.999942
0.999975
0.99998
0.999921
0.999966
1.00004
0.999969
0.999985
1.0001
1.0001
1.00003
1.00008
1.00017
1.00011
1.00006
1.0001
1.0001
0.999722
0.999512
0.99957
0.999717
0.999564
0.999544
0.999709
0.999691
0.99965
0.999793
0.999835
0.99982
0.999867
0.999959
0.999952
0.99986
0.999981
1.00003
0.999873
0.999941
1.00003
0.999944
0.999894
0.99999
1.00002
0.999886
0.999931
1.00002
0.999958
0.999893
0.999972
1.00003
0.99988
0.999933
1.00004
0.999948
0.999948
1.00004
1.00007
1.00005
1.00008
1.00021
1.00016
1.00014
1.00029
1.00025
1.00013
1.00026
1.0003
1.00013
0.999416
0.999389
0.999257
0.999325
0.99941
0.999376
0.99932
0.999467
0.999549
0.99951
0.999634
0.999782
0.999766
0.999813
0.999932
0.999971
0.999884
0.999906
1.00006
0.999942
0.999899
0.999995
1
0.99992
0.999881
1.00003
0.999983
0.999907
0.999926
1.00001
0.99996
0.999858
1
1.00002
0.999925
0.999969
1.00008
1.0001
1.00007
1.00022
1.00032
1.00025
1.00032
1.00045
1.00038
1.00034
1.00044
1.00048
1.00035
1.00037
0.998864
0.999176
0.999009
0.998828
0.998959
0.99905
0.998949
0.99909
0.999187
0.999207
0.999311
0.999508
0.999638
0.999628
0.999768
0.999927
0.999843
0.999913
0.999964
0.99997
0.999897
0.999924
1.00001
0.999923
0.999935
0.99997
0.999993
0.999896
0.99998
1.00001
0.999938
0.999948
0.999981
1.00004
0.999971
1.0001
1.00021
1.0002
1.00031
1.00045
1.00051
1.00052
1.00059
1.00068
1.0006
1.00066
1.00078
1.00062
1.00049
1.00076
0.99866
0.998503
0.998411
0.998534
0.998469
0.998506
0.998582
0.998592
0.998633
0.998861
0.998916
0.998988
0.999241
0.999483
0.999554
0.999603
0.999892
0.999898
0.999836
0.999904
1.00005
0.999973
0.999851
1
1.00004
0.999871
0.999906
1.00006
0.99993
0.999861
0.999999
1.00005
0.999989
0.999987
1.00024
1.00026
1.0003
1.0005
1.00069
1.00071
1.00073
1.00092
1.00092
1.00088
1.00098
1.00099
1.00093
1.00103
1.00101
1.00084
0.998265
0.997938
0.998018
0.998313
0.998046
0.998061
0.998249
0.998205
0.998206
0.998305
0.998477
0.99859
0.998734
0.99898
0.999246
0.999435
0.999572
0.999772
0.999886
0.999843
0.999942
0.999968
0.999911
0.999998
0.999951
0.999963
0.999904
0.999975
0.999952
0.999945
1.00004
0.999999
1.00008
1.00025
1.00033
1.00048
1.00068
1.00084
1.00091
1.00099
1.00111
1.00114
1.00115
1.00111
1.00127
1.00125
1.00107
1.00128
1.00138
1.00112
0.997567
0.997908
0.997963
0.997905
0.997873
0.998042
0.997954
0.997953
0.99808
0.997976
0.997925
0.9982
0.998295
0.998334
0.998699
0.999141
0.999174
0.999407
0.999715
0.999902
0.999695
0.9999
1.00011
0.999804
0.999924
0.999973
1.00009
0.999811
0.999974
1.00019
0.999964
1.00012
1.00038
1.00055
1.00053
1.00086
1.00113
1.00111
1.00115
1.00137
1.00132
1.0012
1.00134
1.00135
1.00128
1.00139
1.00146
1.00134
1.00136
1.00166
0.99751
0.997979
0.997807
0.997764
0.998099
0.998157
0.998
0.99793
0.998055
0.998051
0.99786
0.997791
0.997967
0.998046
0.998116
0.998377
0.99892
0.999036
0.999383
0.999593
0.999868
0.999855
0.999817
1.00004
0.999887
1.00001
0.999852
1.00007
1.00002
0.999979
1.00023
1.00037
1.00063
1.00068
1.0011
1.00127
1.00127
1.00133
1.00148
1.00141
1.00128
1.00134
1.00146
1.00141
1.00136
1.00136
1.00165
1.00158
1.00144
1.00173
0.997808
0.997776
0.99785
0.998178
0.998135
0.997885
0.998355
0.998361
0.998085
0.998152
0.998246
0.997892
0.997742
0.997963
0.997847
0.997881
0.998269
0.998785
0.998825
0.99925
0.999648
0.999767
0.999731
0.999925
1.00009
0.9998
0.99996
1.00012
1.00009
1.00013
1.00047
1.00079
1.00075
1.00116
1.00144
1.00143
1.00133
1.00154
1.00146
1.00122
1.00136
1.00149
1.00131
1.0013
1.00175
1.00152
1.00146
1.00171
1.0018
1.0016
0.997751
0.997672
0.997893
0.997986
0.997876
0.997851
0.998202
0.998218
0.998155
0.998246
0.998316
0.998322
0.997967
0.997791
0.997806
0.997818
0.997708
0.998028
0.998552
0.998803
0.999121
0.999486
0.999856
0.999707
0.999855
1.00003
1.00013
0.999989
1.00027
1.0006
1.00077
1.00093
1.00135
1.0016
1.00145
1.0015
1.00161
1.00149
1.00127
1.0014
1.00151
1.00157
1.00161
1.00158
1.00185
1.00181
1.00176
1.00174
1.00197
1.0019
0.997674
0.998064
0.997874
0.997401
0.997757
0.997985
0.997734
0.997605
0.998319
0.998309
0.998108
0.99832
0.998513
0.997983
0.997956
0.99781
0.997718
0.997598
0.998112
0.998474
0.99866
0.999171
0.999541
0.999827
0.999684
1.00014
1.00002
1.00019
1.00051
1.0009
1.001
1.00125
1.00168
1.00158
1.00155
1.00152
1.00158
1.00123
1.00148
1.0017
1.00155
1.00151
1.00211
1.00194
1.00173
1.00187
1.00225
1.0018
1.00169
1.00207
0.998058
0.998029
0.99776
0.99781
0.997841
0.997703
0.997755
0.997737
0.997832
0.997921
0.998061
0.998274
0.998351
0.998546
0.998093
0.997926
0.99785
0.99779
0.997458
0.997934
0.998426
0.998712
0.999055
0.999478
1.00002
0.999767
1.00024
1.00063
1.00084
1.00101
1.00142
1.00183
1.00156
1.00155
1.00165
1.00159
1.00126
1.00154
1.00165
1.00172
1.00185
1.00191
1.00191
1.00184
1.00201
1.0018
1.00188
1.00196
1.00183
1.00178
0.998295
0.997671
0.997847
0.99829
0.997975
0.997478
0.997931
0.997906
0.997361
0.997469
0.998106
0.997994
0.997884
0.998408
0.998524
0.99809
0.997965
0.99777
0.997671
0.99743
0.998035
0.998253
0.998675
0.99932
0.999587
1.00011
1.00032
1.00086
1.00119
1.00134
1.00186
1.00171
1.00168
1.00168
1.00165
1.0014
1.00153
1.00196
1.00182
1.00168
1.00218
1.00225
1.0018
1.00178
1.00226
1.00182
1.00164
1.00196
1.00222
1.00167
0.997829
0.998156
0.998177
0.997664
0.998049
0.997968
0.997829
0.997616
0.99797
0.997645
0.997529
0.997669
0.998039
0.997968
0.998347
0.998554
0.998145
0.997994
0.997808
0.997799
0.997314
0.998039
0.998601
0.998761
0.999424
1.00011
1.00077
1.00084
1.00132
1.002
1.00161
1.00168
1.00171
1.00168
1.00137
1.00157
1.00191
1.00174
1.00199
1.00216
1.00198
1.00171
1.00213
1.00198
1.00182
1.00185
1.00227
1.00172
1.00178
1.00212
0.997416
0.998024
0.997832
0.997127
0.997825
0.99804
0.997661
0.997497
0.998074
0.997893
0.99716
0.997635
0.997875
0.997766
0.99774
0.998422
0.998509
0.998059
0.997918
0.997667
0.997656
0.997494
0.997982
0.998635
0.999283
1.00014
1.00072
1.00137
1.00182
1.00176
1.00188
1.0018
1.00178
1.00145
1.00157
1.00207
1.00198
1.00184
1.00204
1.0024
1.00183
1.00172
1.00222
1.00208
1.00178
1.00195
1.00253
1.00195
1.00183
1.00231
0.997856
0.997074
0.997376
0.997728
0.997703
0.997252
0.997993
0.997989
0.997651
0.997784
0.998113
0.997599
0.99734
0.997721
0.998031
0.997693
0.998309
0.99851
0.998133
0.997831
0.997791
0.997636
0.997553
0.998518
0.999372
0.999896
1.00076
1.00173
1.00181
1.00173
1.00188
1.00177
1.00146
1.00163
1.00213
1.00177
1.00193
1.00232
1.0021
1.00163
1.00202
1.00216
1.00178
1.00178
1.00246
1.00196
1.00188
1.00225
1.00256
1.00175
0.997639
0.997088
0.997596
0.997823
0.997774
0.997175
0.997859
0.997906
0.997619
0.997586
0.998145
0.997932
0.997382
0.997668
0.997793
0.997754
0.99778
0.998437
0.998414
0.998054
0.997824
0.997728
0.99793
0.998126
0.999017
1.00012
1.00107
1.00141
1.00176
1.00189
1.0018
1.00155
1.00154
1.00206
1.00197
1.00191
1.00207
1.00225
1.00184
1.00173
1.00218
1.00212
1.00193
1.00196
1.00247
1.00196
1.00194
1.00201
1.00244
1.00202
0.996885
0.997609
0.997778
0.99659
0.997511
0.997679
0.997019
0.996971
0.997854
0.997675
0.997177
0.997849
0.998081
0.997379
0.997338
0.997854
0.997955
0.997617
0.998335
0.998485
0.997924
0.99783
0.998025
0.998312
0.998853
1.00024
1.00094
1.00135
1.00177
1.00194
1.00152
1.00161
1.00219
1.00187
1.00186
1.00234
1.00235
1.00168
1.00195
1.00258
1.00202
1.00186
1.00272
1.0026
1.002
1.00225
1.00308
1.00194
1.00204
1.00267
0.99737
0.997473
0.997641
0.997137
0.997675
0.99754
0.997582
0.997464
0.997744
0.997747
0.997714
0.99776
0.998161
0.997975
0.997604
0.997732
0.997802
0.997979
0.997875
0.998468
0.998508
0.998267
0.998181
0.998577
0.999405
0.999737
1.00065
1.00135
1.00148
1.00138
1.00147
1.00199
1.00183
1.00191
1.00206
1.00213
1.00182
1.00174
1.00205
1.00203
1.00199
1.00205
1.00221
1.00206
1.00225
1.00206
1.00244
1.00218
1.00234
1.0022
0.998089
0.996483
0.997456
0.998101
0.997723
0.996739
0.998231
0.998149
0.99695
0.997325
0.998139
0.997683
0.996999
0.99805
0.998085
0.997204
0.997392
0.997971
0.998011
0.997761
0.998577
0.998675
0.998487
0.998945
0.99937
0.999897
1.00043
1.0011
1.00118
1.00133
1.00206
1.00182
1.0018
1.00232
1.00256
1.00177
1.00181
1.00279
1.0021
1.00172
1.00252
1.00285
1.00174
1.00174
1.00305
1.00212
1.00174
1.00244
1.00326
1.00182
0.997386
0.997317
0.99791
0.997124
0.997592
0.997403
0.997413
0.997412
0.997464
0.997429
0.997323
0.997626
0.997652
0.997568
0.997945
0.997927
0.997678
0.997699
0.997888
0.9983
0.998296
0.998939
0.999464
0.999281
0.999492
0.999938
1.00033
1.0003
1.00083
1.00152
1.00152
1.00185
1.00211
1.00213
1.00186
1.0019
1.00227
1.00212
1.00212
1.00253
1.00242
1.00229
1.00255
1.00257
1.00239
1.00233
1.00288
1.00199
1.00249
1.00272
0.996889
0.998372
0.997814
0.996214
0.997561
0.998127
0.997113
0.996668
0.998091
0.99789
0.996986
0.99772
0.998217
0.997809
0.997407
0.998307
0.998117
0.997258
0.997725
0.998311
0.99858
0.998862
0.999711
1.00003
0.999785
0.999882
0.999733
1.00006
1.0009
1.00123
1.00149
1.00201
1.00249
1.00181
1.00161
1.00248
1.00206
1.00166
1.00216
1.00282
1.00201
1.00185
1.00315
1.0027
1.00187
1.0024
1.00356
1.00215
1.00174
1.0031
0.998542
0.996622
0.997241
0.99768
0.997363
0.99666
0.997628
0.997656
0.996951
0.997652
0.997941
0.997346
0.997219
0.997783
0.9978
0.997228
0.997764
0.997989
0.997615
0.997808
0.998601
0.999497
0.999765
1.00027
1.00035
0.99964
0.999589
1.0001
1.00036
1.00109
1.00189
1.0022
1.00186
1.00209
1.00262
1.00207
1.00206
1.00267
1.0026
1.00196
1.00234
1.00304
1.00215
1.00221
1.00333
1.0026
1.00222
1.00288
1.00342
1.00149
0.99766
0.995994
0.997181
0.998071
0.99717
0.996275
0.99773
0.997931
0.996811
0.996968
0.997982
0.99732
0.996904
0.997749
0.998041
0.997709
0.997708
0.998319
0.998153
0.997881
0.998815
0.999737
1.00031
1.00063
1.00036
0.999772
0.99943
0.999612
1.00007
1.0009
1.00186
1.00172
1.00156
1.0022
1.00216
1.00178
1.00218
1.00301
1.00255
1.00202
1.00291
1.00303
1.00201
1.00222
1.0035
1.00273
1.00212
1.00281
1.00371
1.00249
0.995823
0.997877
0.997753
0.99544
0.997386
0.998264
0.996753
0.996425
0.997883
0.997701
0.996333
0.997515
0.998069
0.997308
0.997278
0.998035
0.998034
0.997364
0.997997
0.998666
0.998601
0.999383
1.00061
1.00084
1.00037
0.999914
0.999417
0.999399
1.00042
1.00125
1.00122
1.00179
1.00248
1.00188
1.00185
1.00258
1.00267
1.00193
1.00236
1.00365
1.00221
1.00195
1.00354
1.00322
1.00168
1.00267
1.00454
1.0022
1.00212
1.00419
0.996801
0.997738
0.99727
0.996231
0.997645
0.997764
0.996918
0.996707
0.997676
0.997662
0.996912
0.997182
0.998043
0.997522
0.997099
0.997768
0.99795
0.997815
0.997948
0.998677
0.999211
0.999765
1.00062
1.00076
1.00046
1.00003
0.99953
0.999465
1.00018
1.00072
1.00122
1.00194
1.00206
1.00187
1.00211
1.00279
1.0024
1.00199
1.00272
1.00298
1.00223
1.00229
1.00324
1.003
1.00242
1.0025
1.00345
1.00287
1.00258
1.003
0.998188
0.994862
0.995983
0.998855
0.996778
0.994819
0.99785
0.998112
0.995976
0.996688
0.998041
0.997364
0.996241
0.997632
0.997847
0.997031
0.997491
0.998311
0.998365
0.998416
0.999556
1.00045
1.00043
1.00069
1.00066
0.999858
0.999625
0.999837
0.999741
1.00039
1.00146
1.00156
1.00158
1.0024
1.00297
1.00214
1.00225
1.00371
1.00264
1.00182
1.00321
1.004
1.00194
1.00226
1.00513
1.00325
1.00117
1.00415
1.00507
1.00182
0.996639
0.996396
0.997658
0.997065
0.997004
0.996869
0.997019
0.997473
0.997274
0.997262
0.997433
0.997539
0.997611
0.997253
0.997592
0.997738
0.997591
0.997889
0.99849
0.999061
0.999571
1.00022
1.00066
1.00069
1.00045
1.00015
0.999875
0.999764
0.999977
1.00053
1.001
1.0014
1.00187
1.00231
1.00224
1.00234
1.00275
1.00243
1.00237
1.00253
1.0028
1.00274
1.00261
1.00315
1.00301
1.00309
1.00343
1.00233
1.00354
1.00384
0.994729
0.999576
0.997482
0.993935
0.997047
0.998872
0.9958
0.995068
0.998381
0.997559
0.99563
0.997187
0.998022
0.99673
0.996439
0.997924
0.997991
0.997254
0.998251
0.999509
0.999764
1.00031
1.00087
1.00054
1.00016
1.0004
1.00008
0.999621
1.00005
1.00051
1.00062
1.00164
1.00264
1.00196
1.00199
1.00351
1.00333
1.00199
1.00266
1.00431
1.0025
1.00171
1.00487
1.00433
1.0013
1.00327
1.00616
1.00269
1.00106
1.00584
0.998829
0.995513
0.996247
0.997556
0.996944
0.996281
0.997324
0.997818
0.996207
0.997209
0.997818
0.997583
0.997091
0.997477
0.997887
0.997478
0.997634
0.998201
0.998615
0.999251
1.00018
1.00091
1.00093
1.00049
1.00027
1.00033
1.00014
0.999787
0.999739
1.00017
1.00085
1.00146
1.00182
1.00233
1.0026
1.00218
1.0024
1.00286
1.00254
1.00224
1.00278
1.00382
1.00231
1.00276
1.00412
1.00326
1.00243
1.00433
1.00516
1.00118
0.998177
0.993349
0.995556
0.999681
0.996326
0.994011
0.998164
0.998124
0.995399
0.995838
0.998311
0.997287
0.995931
0.99733
0.997705
0.996907
0.997038
0.998176
0.998688
0.999008
1.00019
1.00097
1.00075
1.00061
1.00052
1.00011
1.00008
1.00004
0.999687
1.0002
1.00129
1.00147
1.00173
1.00293
1.00324
1.00231
1.0025
1.00412
1.00291
1.00168
1.00403
1.00475
1.00211
1.00212
1.00614
1.00399
1.00091
1.00515
1.00666
1.00271
0.993437
0.999029
0.997985
0.993311
0.99692
0.999001
0.995974
0.995748
0.997861
0.998059
0.996082
0.997243
0.998249
0.997223
0.996878
0.997927
0.998034
0.997743
0.998739
0.999817
1.00045
1.00102
1.00123
1.00063
1.00018
1.00025
1.00015
0.999721
0.999776
1.00026
1.00074
1.0015
1.0023
1.00211
1.00219
1.00315
1.00292
1.00179
1.00263
1.00391
1.00213
1.00214
1.00439
1.00439
1.0012
1.00353
1.00722
1.00215
1.00167
1.00791
0.995562
0.999953
0.996025
0.992883
0.996804
0.998318
0.995472
0.995358
0.998072
0.997264
0.995821
0.996827
0.997758
0.996962
0.996868
0.997667
0.997609
0.997664
0.998778
0.999775
1.0003
1.0011
1.00153
1.0007
1.00017
1.00051
1.00015
0.999397
0.99984
1.00053
1.00083
1.00164
1.00265
1.00253
1.00236
1.00327
1.00324
1.00212
1.00291
1.00434
1.00296
1.00203
1.00483
1.00494
1.00199
1.00355
1.00737
1.00418
1.00186
1.00556
1.00049
0.988806
0.994271
1.00146
0.996268
0.992966
0.997706
0.999527
0.995423
0.996122
0.998366
0.997547
0.996152
0.997565
0.998288
0.996828
0.997078
0.998556
0.999035
0.999492
1.00075
1.00161
1.00138
1.00083
1.00025
0.999814
0.999689
0.999674
0.999596
1.00025
1.00143
1.0017
1.0018
1.00308
1.00353
1.00197
1.00234
1.0039
1.00263
1.00143
1.0038
1.00511
1.00087
1.00234
1.00721
1.00428
0.99923
1.00703
1.01104
0.998654
0.993564
0.992743
0.996299
0.997293
0.995034
0.995352
0.997096
0.997001
0.995794
0.996789
0.997305
0.996966
0.996967
0.997553
0.997268
0.997033
0.997596
0.998319
0.998735
0.99981
1.00114
1.00183
1.00145
1.0011
1.00052
0.999753
0.999675
0.9999
0.999628
1.00015
1.00141
1.00222
1.00221
1.00266
1.00317
1.00274
1.0022
1.00302
1.00319
1.00266
1.00323
1.00474
1.00332
1.00281
1.00484
1.00573
1.00305
1.00438
1.00818
1.00869
0.992118
1.00693
0.99676
0.989715
0.99744
1.00017
0.994894
0.994615
0.998589
0.997762
0.995486
0.997184
0.998619
0.996941
0.996497
0.997833
0.99778
0.997476
0.998799
1.00005
1.00069
1.00174
1.00217
1.00128
1.00032
0.999801
0.999108
0.998789
0.999615
1.00056
1.00091
1.00225
1.0035
1.00259
1.00227
1.00391
1.00313
1.00083
1.00277
1.00524
1.00201
1.00117
1.00645
1.00561
0.998621
1.00454
1.01177
1.00121
0.995922
1.02301

VECTORS velocity double
7.506e-07 9.89889e-07 0
-4.7192e-07 6.92701e-08 0
-1.20709e-07 -5.02881e-07 0
7.63571e-08 -8.27452e-07 0
3.37012e-07 -8.39073e-07 0
7.03379e-07 -6.91908e-07 0
9.54119e-07 -5.68241e-07 0
1.00866e-06 -4.2771e-07 0
1.08809e-06 -1.53389e-07 0
9.70763e-07 -1.02354e-07 0
3.42656e-07 -3.34348e-07 0
-2.49606e-07 -2.04939e-07 0
-3.57864e-07 -1.38637e-08 0
-7.70339e-07 -4.74453e-07 0
-1.48488e-06 -6.06219e-07 0
-1.3215e-06 -1.07803e-08 0
-6.94663e-07 -1.87419e-07 0
-7.54926e-07 -6.47244e-07 0
-5.89656e-07 3.79093e-08 0
4.75842e-07 4.09306e-07 0
1.17762e-06 -2.28111e-07 0
1.2797e-06 -4.38799e-08 0
1.77917e-06 5.28355e-07 0
2.29559e-06 2.30058e-08 0
2.19928e-06 -2.69475e-07 0
2.07392e-06 2.10398e-07 0
1.91996e-06 -1.0309e-07 0
1.17312e-06 -6.21305e-07 0
4.96412e-07 -5.66092e-08 0
2.70387e-07 9.35912e-08 0
-5.18453e-07 -5.82215e-07 0
-1.61186e-06 -2.17573e-07 0
-1.73073e-06 4.58859e-07 0
-1.5895e-06 -2.51932e-08 0
-2.12193e-06 -1.98423e-07 0
-2.15759e-06 4.23014e-07 0
-1.29593e-06 3.09459e-07 0
-7.52364e-07 -1.25085e-07 0
-5.28023e-07 1.10177e-07 0
1.75922e-07 2.83298e-07 0
9.02152e-07 8.94102e-08 0
1.1001e-06 1.77452e-07 0
1.09307e-06 4.81898e-07 0
1.10801e-06 6.34122e-07 0
9.20429e-07 7.7261e-07 0
6.35204e-07 9.60383e-07 0
3.73572e-07 7.20613e-07 0
-2.57218e-07 3.32658e-07 0
8.28284e-08 5.54235e-07 0
5.6217e-07 -5.83626e-07 0
8.89574e-07 3.19136e-07 0
9.18708e-07 3.30682e-07 0
-8.94496e-08 -1.4168e-07 0
-1.43002e-07 -6.20127e-07 0
2.08356e-07 -4.52463e-07 0
6.38953e-07 -3.93399e-07 0
9.55871e-07 -3.92202e-07 0
1.33109e-06 -1.79826e-07 0
1.53603e-06 -2.79874e-07 0
1.04801e-06 -9.22306e-07 0
5.96705e-07 -8.4262e-07 0
7.20559e-07 -3.37596e-07 0
3.51195e-07 -1.21487e-06 0
-6.62006e-07 -1.56442e-06 0
-5.04615e-07 4.16081e-08 0
1.1062e-07 -1.75601e-07 0
-6.6039e-07 -1.59776e-06 0
-1.28219e-06 1.6173e-07 0
-4.86081e-07 1.2866e-06 0
-4.73872e-07 -6.90068e-07 0
-1.60892e-06 -3.27024e-07 0
-1.81158e-06 1.38909e-06 0
-1.27395e-06 3.97181e-07 0
-1.51722e-06 -3.92228e-07 0
-2.19428e-06 -9.56245e-08 0
-2.15154e-06 -1.36833e-07 0
-1.36105e-06 2.29737e-07 0
-9.96168e-07 -5.98973e-07 0
-1.4368e-06 -1.59209e-06 0
-1.09356e-06 2.30442e-07 0
2.2891e-07 5.99723e-07 0
3.61932e-07 -1.41281e-06 0
-3.07821e-07 -2.14677e-07 0
4.80494e-07 1.59079e-06 0
1.38627e-06 1.28394e-07 0
8.17784e-07 -8.62359e-08 0
6.68522e-07 1.55455e-06 0
1.6567e-06 1.19535e-06 0
1.91962e-06 3.05324e-07 0
1.61757e-06 8.29912e-07 0
1.85947e-06 9.29791e-07 0
2.11482e-06 2.99861e-07 0
1.66185e-06 2.18863e-07 0
1.0553e-06 4.46766e-07 0
5.54429e-07 4.65019e-07 0
1.76366e-07 3.95057e-07 0
-2.51038e-07 3.89059e-07 0
-2.2419e-07 3.41963e-07 0
8.10918e-08 1.20246e-07 0
1.18705e-06 6.29154e-08 0
7.7287e-08 -4.66479e-07 0
3.39883e-09 -2.55926e-07 0
8.72578e-07 2.44726e-08 0
1.14287e-06 3.28457e-07 0
9.44956e-07 4.41603e-07 0
7.84159e-07 2.99944e-07 0
8.70959e-07 4.25192e-07 0
7.76498e-07 2.72983e-07 0
1.51346e-07 -7.60941e-07 0
-3.12298e-07 -8.56003e-07 0
4.41348e-07 -7.47638e-09 0
5.46417e-07 -1.2152e-06 0
3.75573e-08 -2.15414e-06 0
1.20658e-06 4.59687e-07 0
3.00305e-06 4.1063e-07 0
2.28564e-06 -2.81851e-06 0
1.85182e-06 -4.01784e-07 0
3.53349e-06 2.37121e-06 0
3.30306e-06 -2.55773e-06 0
7.74109e-07 -3.09229e-06 0
7.27502e-07 2.7899e-06 0
1.46457e-06 -2.55572e-07 0
-8.47776e-07 -5.09592e-06 0
-2.38065e-06 1.33931e-06 0
-6.60921e-07 3.52754e-06 0
-6.51798e-07 -3.59548e-06 0
-2.30017e-06 -1.28839e-06 0
-6.36448e-07 5.21618e-06 0
1.72689e-06 3.02289e-07 0
9.20779e-07 -2.69473e-06 0