# vtk DataFile Version 4.0
SiwiRVisFile
ASCII
DATASET STRUCTURED_POINTS
DIMENSIONS 50 50 1
ORIGIN 0 0 0
SPACING 1 1 1
POINT_DATA 2500


SCALARS flags double 1
LOOKUP_TABLE default
1
1
1
1
1
1
1
1
1
1
1
1
1
1
1
1
1
1
1
1
1
1
1
1
1
1
1
1
1
1
1
1
1
1
1
1
1
1
1
1
1
1
1
1
1
1
1
1
1
1
1
1
1
1
1
1
1
1
1
1
1
1
1
1
1
1
1
1
1
1
1
1
1
1
1
1
1
1
1
1
1
1
1
1
1
1
1
1
1
1
1
1
1
1
1
1
1
1
1
1
1
1
1
1
1
1
1
1
1
1
1
1
1
1
1
1
1
1
1
1
1
1
1
1
1
1
1
1
1
1
1
1
1
1
1
1
1
1
1
1
1
1
1
1
1
1
1
1
1
1
1
1
1
1
1
1
1
1
1
1
1
1
1
1
1
1
1
1
1
1
1
1
1
1
1
1
1
1
1
1
1
1
1
1
1
1
1
1
1
1
1
1
1
1
1
1
1
1
1
1
1
1
1
1
1
1
1
1
1
1
1
1
1
1
1
1
1
1
1
1
1
1
1
1
1
1
1
1
1
1
1
1
1
1
1
1
1
1
1
1
1
1
1
1
1
1
1
1
1
1
1
1
1
1
1
1
1
1
1
1
1
1
1
1
1
1
1
1
1
1
1
1
1
1
1
1
1
1
1
1
1
1
1
1
1
1
1
1
1
1
1
1
1
1
1
1
1
1
1
1
1
1
1
1
1
1
1
1
1
1
1
1
1
1
1
1
1
1
1
1
1
1
1
1
1
1
1
1
1
1
1
1
1
1
1
1
1
1
1
1
1
1
1
1
1
1
1
1
1
1
1
1
1
1
1
1
1
1
1
1
1
1
1
1
1
1
1
1
1
1
1
1
1
1
1
1
1
1
1
1
1
1
1
1
1
1
1
1
1
1
1
1
1
1
1
1
1
1
1
1
1
1
1
1
1
1
1
1
1
1
1
1
1
1
1
1
1
1
1
1
1
1
1
1
1
1
1
1
1
1
1
1
1
1
1
1
1
1
1
1
1
1
1
1
1
1
1
1
1
1
1
1
1
1
1
1
1
1
1
1
1
1
1
1
1
1
1
1
1
1
1
1
1
1
1
1
1
1
1
1
1
1
1
1
1
1
1
1
1
1
1
1
1
1
1
1
1
1
1
1
1
1
1
1
1
1
1
1
1
1
1
1
1
1
1
1
1
1
1
1
1
1
1
1
1
1
1
1
1
1
1
1
1
1
1
1
1
1
1
1
1
1
1
1
1
1
1
1
1
1
1
1
1
1
1
1
1
1
1
1
1
1
1
1
1
1
1
1
1
1
1
1
1
1
1
1
1
1
1
1
1
1
1
1
1
1
1
1
1
1
1
1
1
1
1
1
1
1
1
1
1
1
1
1
1
1
1
1
1
1
1
1
1
1
1
1
1
1
1
1
1
1
1
1
1
1
1
1
1
1
1
1
1
1
1
1
1
1
1
1
1
1
1
1
1
1
1
1
1
1
1
1
1
1
1
1
1
1
1
1
1
1
1
1
1
1
1
1
1
1
1
1
1
1
1
1
1
1
1
1
1
1
1
1
1
1
1
1
1
1
1
1
1
1
1
1
1
1
1
1
1
1
1
1
1
1
1
1
1
1
1
1
1
1
1
1
1
1
1
1
1
1
1
1
1
1
1
1
1
1
1
1
1
1
1
1
1
1
1
1
1
1
1
1
1
1
1
1
1
1
1
1
1
1
1
1
1
1
1
1
1
1
1
1
1
1
1
1
1
1
1
1
1
1
1
1
1
1
1
1
1
1
1
1
1
1
1
1
1
1
1
1
1
1
1
1
1
1
1
1
1
1
1
1
1
1
1
1
1
1
1
1
1
1
1
1
1
1
1
1
1
1
1
1
1
1
1
1
1
1
1
1
1
1
1
1
1
1
1
1
1
1
1
1
1
1
1
1
1
1
1
1
1
1
1
1
1
1
1
1
1
1
1
1
1
1
1
1
1
1
1
1
1
1
1
1
1
1
1
1
1
1
1
1
1
1
1
1
1
1
1
1
1
1
1
1
1
1
1
1
1
1
1
1
1
1
1
1
1
1
1
1
1
1
1
1
1
1
1
1
1
1
1
1
1
1
1
1
1
1
1
1
1
1
1
1
1
1
1
1
1
1
1
1
1
1
1
1
1
1
1
1
1
1
1
1
1
1
1
1
1
1
1
1
1
1
1
1
1
1
1
1
1
1
1
1
1
1
1
1
1
1
1
1
1
1
1
1
1
1
1
1
1
1
1
1
1
1
1
1
1
1
1
1
1
1
1
1
1
1
1
1
1
1
1
1
1
1
1
1
1
1
1
1
1
1
1
1
1
1
1
1
1
1
1
1
1
1
1
1
1
1
1
1
1
1
1
1
1
1
1
1
1
1
1
1
1
1
1
1
1
1
1
1
1
1
1
1
1
1
1
1
1
1
1
1
1
1
1
1
1
1
1
1
1
1
1
1
1
1
1
1
1
1
1
1
1
1
1
1
1
1
1
1
1
1
1
1
1
1
1
1
1
1
1
1
1
1
1
1
1
1
1
1
1
1
1
1
1
1
1
1
1
1
1
1
1
1
1
1
1
1
1
1
1
1
1
1
1
1
1
1
1
1
1
1
1
1
1
1
1
1
1
1
1
1
1
1
1
1
1
1
1
1
1
1
1
1
1
1
1
1
1
1
1
1
1
1
1
1
1
1
1
1
1
1
1
1
1
1
1
1
1
1
1
1
1
1
1
1
1
1
1
1
1
1
1
1
1
1
1
1
1
1
1
1
1
1
1
1
1
1
1
1
1
1
1
1
1
1
1
1
1
1
1
1
1
1
1
1
1
1
1
1
1
1
1
1
1
1
1
1
1
1
1
1
1
1
1
1
1
1
1
1
1
1
1
1
1
1
1
1
1
1
1
1
1
1
1
1
1
1
1
1
1
1
1
1
1
1
1
1
1
1
1
1
1
1
1
1
1
1
1
1
1
1
1
1
1
1
1
1
1
1
1
1
1
1
1
1
1
1
1
1
1
1
1
1
1
1
1
1
1
1
1
1
1
1
1
1
1
1
1
1
1
1
1
1
1
1
1
1
1
1
1
1
1
1
1
1
1
1
1
1
1
1
1
1
1
1
1
1
1
1
1
1
1
1
1
1
1
1
1
1
1
1
1
1
1
1
1
1
1
1
1
1
1
1
1
1
1
1
1
1
1
1
1
1
1
1
1
1
1
1
1
1
1
1
1
1
1
1
1
1
1
1
1
1
1
1
1
1
1
1
1
1
1
1
1
1
1
1
1
1
1
1
1
1
1
1
1
1
1
1
1
1
1
1
1
1
1
1
1
1
1
1
1
1
1
1
1
1
1
1
1
1
1
1
1
1
1
1
1
1
1
1
1
1
1
1
1
1
1
1
1
1
1
1
1
1
1
1
1
1
1
1
1
1
1
1
1
1
1
1
1
1
1
1
1
1
1
1
1
1
1
1
1
1
1
1
1
1
1
1
1
1
1
1
1
1
1
1
1
1
1
1
1
1
1
1
1
1
1
1
1
1
1
1
1
1
1
1
1
1
1
1
1
1
1
1
1
1
1
1
1
1
1
1
1
1
1
1
1
1
1
1
1
1
1
1
1
1
1
1
1
1
1
1
1
1
1
1
1
1
1
1
1
1
1
1
1
1
1
1
1
1
1
1
1
1
1
1
1
1
1
1
1
1
1
1
1
1
1
1
1
1
1
1
1
1
1
1
1
1
1
1
1
1
1
1
1
1
1
1
1
1
1
1
1
1
1
1
1
1
1
1
1
1
1
1
1
1
1
1
1
1
1
1
1
1
1
1
1
1
1
1
1
1
1
1
1
1
1
1
1
1
1
1
1
1
1
1
1
1
1
1
1
1
1
1
1
1
1
1
1
1
1
1
1
1
1
1
1
1
1
1
1
1
1
1
1
1
1
1
1
1
1
1
1
1
1
1
1
1
1
1
1
1
1
1
1
1
1
1
1
1
1
1
1
1
1
1
1
1
1
1
1
1
1
1
1
1
1
1
1
1
1
1
1
1
1
1
1
1
1
1
1
1
1
1
1
1
1
1
1
1
1
1
1
1
1
1
1
1
1
1
1
1
1
1
1
1
1
1
1
1
1
1
1
1
1
1
1
1
1
1
1
1
1
1
1
1
1
1
1
1
1
1
1
1
1
1
1
1
1
1
1
1
1
1
1
1
1
1
1
1
1
1
1
1
1
1
1
1
1
1
1
1
1
1
1
1
1
1
1
1
1
1
1
1
1
1
1
1
1
1
1
1
1
1
1
1
1
1
1
1
1
1
1
1
1
1
1
1
1
1
1
1
1
1
1
1
1
1
1
1
1
1
1
1
1
1
1
1
1
1
1
1
1
1
1
1
1
1
1
1
1
1
1
1
1
1
1
1
1
1
1
1
1
1
1
1
1
1
1
1
1
1
1
1
1
1
1
1
1
1
1
1
1
1
1
1
1
1
1
1
1
1
1
1
1
1
1
1
1
1
1
1
1
1
1
1
1
1
1
1
1
1
1
1
1
1
1
1
1
1
1
1
1
1
1
1
1
1
1
1
1
1
1
1
1
1
1
1
1
1
1
1
1
1
1
1
1
1
1
1
1
1
1
1
1
1
1
1
1
1
1
1
1
1
1
1
1
1
1
1
1
1
1
1
1
1
1
1
1
1
1
1
1
1
1
1
1
1
1
1
1
1
1
1
1
1
1
1
1
1
1
1
1
1
1
1
1
1
1
1
1
1
1
1
1
1
1
1
1
1
1
1
1
1
1
1
1
1
1
1
1
1
1
1
1
1
1
1
1
1
1
1
1
1
1
1
1
1
1
1
1
1
1
1
1
1
1
1
1
1
1
1
1
1
1
1
1
1
1
1
1
1
1
1
1
1
1
1
1
1
1
1
1
1
1
1
1
1
1
1
1
1
1
1
1
1
1
1
1
1
1
1
1
1
1
1
1
1
1
1
1
1
1
1
1
1
1
1
1
1
1
1
1
1
1
1
1
1
1
1
1
1
1
1
1
1
1
1
1
1
1
1
1
1
1
1
1
1
1
1
1
1
1
1
1
1
1
1
1
1
1
1
1
1
1
1
1
1
1
1
1
1
1
1
1
1
1
1
1
1
1
1
1
1
1
1
1
1
1
1
1
1
1
1
1
1
1
1
1
1
1
1
1
1
1
1
1
1
1
1
1
1
1
1
1
1
1
1
1
1
1
1
1
1
1
1
1
1
1
1
1
1
1
1
1
1
1
1
1
1
1
1
1
1
1
1
1
1
1
1
1
1
1
1
1
1
1
1
1
1
1
1
1
1
1
1
1
1
1
1
1
1
1
1
1
1
1
1
1
1
1
1
1
1
1
1
1
1
1
1
1
1
1
1
1
1
1
1
1
1
1
1
1
1
1
1
1
1
1
1
1
1
1
1
1
1
1
1
1
1
1
1
1
1
1
1
1
1
1
1
1
1
1
1
1
1
1
1
1
1
1
1
1
1
1
1
1
1
1
1
1
1
1
1
1
1
1
1
1
1
1
1
1
1
1
1
1
1
1
1
1
1
1
1
1
1
1
1
1
1
1
1
1
1
1
1
1
1
1
1
1
1
1
1
1
1
1
1
1
1
1
1
1
1

SCALARS density double 1
LOOKUP_TABLE default
0.999963
0.999963
0.999963
0.999963
0.999963
0.999963
0.999963
0.999963
0.999963
0.999963
0.999963
0.999963
0.999963
0.999963
0.999963
0.999963
0.999963
0.999963
0.999963
0.999963
0.999963
0.999963
0.999963
0.999963
0.999963
0.999963
0.999963
0.999963
0.999963
0.999963
0.999963
0.999963
0.999963
0.999963
0.999963
0.999963
0.999963
0.999963
0.999963
0.999963
0.999963
0.999963
0.999963
0.999963
0.999963
0.999963
0.999963
0.999963
0.999963
0.999963
0.999963
0.999963
0.999963
0.999963
0.999963
0.999963
0.999963
0.999963
0.999963
0.999963
0.999963
0.999963
0.999963
0.999963
0.999963
0.999963
0.999963
0.999963
0.999963
0.999963
0.999963
0.999963
0.999963
0.999963
0.999963
0.999963
0.999963
0.999963
0.999963
0.999963
0.999963
0.999963
0.999963
0.999963
0.999963
0.999963
0.999963
0.999963
0.999963
0.999963
0.999963
0.999963
0.999963
0.999963
0.999963
0.999963
0.999963
0.999963
0.999963
0.999963
0.999963
0.999963
0.999963
0.999963
0.999963
0.999963
0.999963
0.999963
0.999963
0.999963
0.999963
0.999963
0.999963
0.999963
0.999963
0.999963
0.999963
0.999963
0.999963
0.999963
0.999963
0.999963
0.999963
0.999963
0.999963
0.999963
0.999963
0.999963
0.999963
0.999963
0.999963
0.999963
0.999963
0.999963
0.999963
0.999963
0.999963
0.999963
0.999963
0.999963
0.999963
0.999963
0.999963
0.999963
0.999963
0.999963
0.999963
0.999963
0.999963
0.999963
0.999963
0.999964
0.999963
0.999963
0.999963
0.999963
0.999963
0.999963
0.999963
0.999963
0.999963
0.999963
0.999963
0.999963
0.999963
0.999963
0.999963
0.999963
0.999963
0.999963
0.999963
0.999963
0.999963
0.999963
0.999963
0.999963
0.999963
0.999963
0.999963
0.999963
0.999963
0.999963
0.999963
0.999963
0.999963
0.999963
0.999963
0.999963
0.999963
0.999963
0.999963
0.999963
0.999963
0.999963
0.999963
0.999963
0.999963
0.999963
0.999963
0.999963
0.999963
0.999962
0.999963
0.999963
0.999963
0.999963
0.999963
0.999963
0.999963
0.999963
0.999963
0.999963
0.999963
0.999963
0.999963
0.999963
0.999963
0.999963
0.999963
0.999963
0.999963
0.999963
0.999963
0.999963
0.999963
0.999963
0.999963
0.999964
0.999964
0.999964
0.999964
0.999964
0.999964
0.999963
0.999963
0.999963
0.999963
0.999963
0.999963
0.999963
0.999963
0.999963
0.999963
0.999963
0.999963
0.999963
0.999963
0.999963
0.999963
0.999963
0.999964
0.999963
0.999963
0.999963
0.999963
0.999963
0.999963
0.999963
0.999963
0.999963
0.999963
0.999963
0.999963
0.999963
0.999963
0.999963
0.999963
0.999963
0.999963
0.999963
0.999963
0.999963
0.999963
0.999963
0.999963
0.999963
0.999963
0.999963
0.999963
0.999963
0.999963
0.999963
0.999963
0.999963
0.999963
0.999963
0.999963
0.999963
0.999963
0.999963
0.999963
0.999963
0.999963
0.999963
0.999963
0.999963
0.999963
0.999963
0.999965
0.999963
0.999962
0.999964
0.999962
0.999963
0.999963
0.999963
0.999963
0.999963
0.999963
0.999963
0.999963
0.999963
0.999962
0.999963
0.999963
0.999963
0.999963
0.999964
0.999965
0.999964
0.999963
0.999964
0.999965
0.999963
0.999962
0.999964
0.999963
0.999961
0.999962
0.999963
0.999962
0.999961
0.999962
0.999963
0.999963
0.999963
0.999964
0.999964
0.999964
0.999964
0.999964
0.999964
0.999964
0.999964
0.999964
0.999964
0.999963
0.999963
0.999965
0.999963
0.999963
0.999964
0.999963
0.999963
0.999963
0.999963
0.999964
0.999963
0.999963
0.999963
0.999963
0.999963
0.999963
0.999963
0.999964
0.999962
0.999963
0.999965
0.999963
0.999961
0.999965
0.999964
0.99996
0.999963
0.999965
0.99996
0.999963
0.999966
0.999962
0.999962
0.999966
0.999964
0.999961
0.999964
0.999965
0.999963
0.999964
0.999964
0.999964
0.999964
0.999963
0.999963
0.999963
0.999963
0.999963
0.999963
0.999963
0.999964
0.999959
0.999964
0.999964
0.999961
0.999964
0.999963
0.999963
0.999963
0.999963
0.999963
0.999963
0.999963
0.999963
0.999963
0.999964
0.999965
0.999962
0.999962
0.999966
0.999963
0.999957
0.999961
0.999967
0.999959
0.999953
0.999967
0.99997
0.999957
0.99996
0.999973
0.999968
0.999959
0.999965
0.99997
0.999963
0.99996
0.999963
0.999963
0.999961
0.999961
0.999963
0.999962
0.999962
0.999962
0.999962
0.999962
0.999962
0.999962
0.999963
0.999964
0.999963
0.999965
0.999963
0.999965
0.999963
0.999963
0.999962
0.999963
0.999962
0.999962
0.999963
0.999962
0.999962
0.999964
0.999966
0.999962
0.999961
0.99997
0.999963
0.999951
0.999971
0.999975
0.999941
0.99996
0.999993
0.99995
0.999937
0.99999
0.999975
0.999933
0.999967
0.999984
0.99995
0.999954
0.999975
0.999962
0.999956
0.999965
0.999964
0.999961
0.999963
0.999965
0.999965
0.999965
0.999965
0.999965
0.999964
0.999964
0.999965
0.999961
0.999966
0.999961
0.99996
0.999964
0.999962
0.999964
0.999963
0.999964
0.999963
0.999963
0.999963
0.999962
0.999964
0.999964
0.999962
0.999961
0.999963
0.999965
0.99996
0.999956
0.99997
0.999973
0.999955
0.999963
0.999979
0.999962
0.999953
0.999971
0.999966
0.999947
0.999961
0.999971
0.999955
0.999956
0.999971
0.999968
0.999962
0.999964
0.999967
0.999966
0.999963
0.999963
0.999965
0.999964
0.999963
0.999963
0.999962
0.999964
0.999962
0.999962
0.999963
0.999963
0.999962
0.999961
0.999963
0.999963
0.999964
0.999963
0.999963
0.999963
0.999963
0.999963
0.999969
0.999962
0.999954
0.999978
0.999971
0.999925
0.999973
1.00002
0.999917
0.999914
1.00005
0.999977
0.999859
1.00001
1.00005
0.999875
0.999921
1.00007
0.99995
0.999876
1.00001
1.00001
0.999909
0.999954
1
0.999955
0.999948
0.99997
0.999963
0.999956
0.999961
0.999961
0.999962
0.999962
0.999962
0.999964
0.999962
0.999966
0.999962
0.999968
0.99996
0.999959
0.999963
0.999963
0.999963
0.999964
0.999962
0.999962
0.999967
0.999961
0.999962
0.999974
0.999957
0.99995
0.999987
0.999973
0.999932
0.999968
1
0.99995
0.999928
0.999977
0.999987
0.999937
0.999941
0.999991
0.999981
0.999938
0.999958
0.999995
0.999968
0.999929
0.99996
0.999988
0.999951
0.999941
0.999975
0.999967
0.999953
0.999965
0.999966
0.99996
0.999965
0.999965
0.999964
0.999962
0.999963
0.999964
0.999967
0.999966
0.99995
0.999956
0.999958
0.999962
0.999961
0.999965
0.999965
0.999958
0.999973
0.999968
0.999932
0.999979
1.00001
0.999897
0.999923
1.00008
0.999951
0.999834
1.00005
1.00005
0.999817
0.999948
1.00011
0.999899
0.999846
1.00008
1.00003
0.999822
0.999973
1.00011
0.999884
0.999877
1.00009
0.999977
0.999855
1
1.00003
0.99992
0.99995
0.999994
0.999959
0.999954
0.999969
0.999961
0.999962
0.999964
0.999964
0.999965
0.999973
0.999971
0.999938
0.999947
0.999948
0.999955
0.999957
0.999955
0.999974
0.999951
0.999941
1
0.999969
0.999885
0.999986
1.00005
0.999901
0.999891
1.00004
1
0.999865
0.999948
1.00007
0.999941
0.999878
1.00003
1.00003
0.999885
0.999914
1.00005
0.999971
0.999865
0.99999
1.00005
0.999917
0.9999
1.00003
1.00001
0.999886
0.999944
1.00003
0.999955
0.999924
0.999982
0.999973
0.999952
0.999969
0.999971
0.999971
0.999978
0.999977
0.999989
0.99993
0.999937
0.999932
0.999943
0.999958
0.99993
0.999968
1
0.999902
0.99993
1.00008
0.99994
0.999837
1.00006
1.00003
0.999822
0.999991
1.00008
0.999862
0.999929
1.00007
0.999956
0.999902
1
1.00001
0.999921
0.999918
1.00002
0.999978
0.999863
0.999983
1.00006
0.999862
0.999928
1.00009
0.999901
0.99987
1.00007
0.999982
0.999862
0.999993
1.00002
0.999929
0.999959
0.999994
0.999968
0.999983
0.999995
0.999986
0.999998
0.999923
0.999924
0.999917
0.99991
0.999969
0.999947
0.99988
1.00002
1.00005
0.999848
0.999915
1.00011
0.999963
0.999846
1.00001
1.00007
0.99989
0.99989
1.00007
0.999993
0.999852
0.999978
1.00003
0.99991
0.999906
1.00002
1.00001
0.99989
0.999955
1.00008
0.999921
0.999862
1.00005
1.00002
0.999862
0.999934
1.00007
0.999954
0.99984
1.00001
1.00006
0.999887
0.999917
1.00004
0.999979
0.999957
1.00001
1
0.999999
0.999992
0.999897
0.999873
0.99991
0.999842
0.999872
1.00002
0.999891
0.999815
1.00005
1.00004
0.999826
0.999968
1.00005
0.999877
0.999952
1.00003
0.999906
0.999958
1.00001
0.999927
0.99995
0.999959
0.999976
0.999951
0.999919
1
0.99998
0.999953
0.999965
0.999972
1
0.999924
0.999959
1.00002
0.999911
0.999967
1.00003
0.999889
0.999959
1.00007
0.999891
0.999892
1.00009
1.00002
0.999915
1.00005
1.00007
1.00001
1.00004
1.00002
0.99987
0.999763
0.999857
0.999866
0.999694
0.999819
1.00002
0.999843
0.999787
1.00002
1
0.999859
0.999933
1.00005
0.999954
0.999853
1.00001
1.00003
0.999874
0.999969
1.00005
0.999959
0.999903
0.999995
1.00006
0.99987
0.999929
1.00003
0.999965
0.999868
0.999963
1.00006
0.999875
0.999912
1.00008
0.999957
0.999866
1
1.00005
0.999911
0.999918
1.00011
1.00005
0.999914
1.00009
1.00019
1.00004
1.00006
1.00013
1.00005
0.999798
0.999632
0.999625
0.999806
0.999784
0.99957
0.999744
0.999933
0.999811
0.99984
0.999973
0.999945
0.999948
0.999976
0.999936
0.999984
0.999977
0.999948
1
0.999903
0.999962
1.00001
0.999924
0.999971
0.999998
0.999925
0.999957
0.999996
0.999907
0.99997
1.00002
0.999915
0.999983
0.999957
0.999926
0.999977
0.99996
0.999972
0.999958
0.99995
1.00007
1.00008
0.999983
1.00016
1.00029
1.00009
1.00009
1.00024
1.00022
1.00009
0.999433
0.999588
0.999507
0.999299
0.999614
0.999588
0.999443
0.999603
0.999775
0.999729
0.999762
0.999945
0.999979
0.999802
0.999979
1.0001
0.999855
0.999861
1.00007
0.999994
0.999837
0.999938
1.00008
0.999923
0.999821
1.00011
1
0.999837
0.999993
1.00009
0.999924
0.999851
1.00007
1.00007
0.99981
0.999947
1.00012
0.999917
0.999959
1.00015
1.00015
1.00009
1.00026
1.00038
1.00023
1.00023
1.00049
1.0003
1.00024
1.00037
0.99906
0.999188
0.999312
0.998969
0.999024
0.999218
0.999234
0.999186
0.999378
0.999569
0.999594
0.999709
0.999851
0.999911
0.999846
0.999922
1.00005
0.999953
0.999885
1.00005
0.999951
0.999973
0.999946
0.999954
1.00007
0.999857
0.999954
0.999995
0.99995
0.99995
0.999886
1.00005
0.999951
0.999866
1.00001
1.00006
0.999974
1.00005
1.00018
1.00025
1.00025
1.00043
1.00058
1.0005
1.00051
1.00069
1.00068
1.00042
1.00056
1.00064
0.999112
0.998422
0.998503
0.998822
0.998632
0.998557
0.998821
0.998832
0.99884
0.999176
0.999383
0.999336
0.999571
0.999976
0.999829
0.999756
1.00005
1.00001
0.999889
0.999869
1.00016
0.999943
0.999791
1.00005
0.999965
0.999946
0.99988
1.00012
0.999982
0.999774
1.00005
1.00002
0.999902
0.999878
1.00013
1.00006
0.99991
1.00028
1.00046
1.00038
1.00057
1.00083
1.00078
1.00077
1.00099
1.00092
1.00072
1.00102
1.0011
1.00053
0.998287
0.997993
0.998175
0.998223
0.998133
0.998058
0.998255
0.998341
0.998338
0.998411
0.9988
0.999075
0.999217
0.999384
0.999732
0.999833
0.99975
0.99994
0.999986
0.999993
0.999787
0.999989
1.00008
0.999855
0.999934
0.999994
1.00006
0.999849
0.99993
1.00013
0.999921
0.99992
0.999981
1.00014
1.00002
1.00013
1.00044
1.00052
1.00061
1.00083
1.00112
1.00111
1.00109
1.00118
1.00128
1.00121
1.00117
1.0012
1.00132
1.00115
0.997353
0.997954
0.998033
0.997407
0.997835
0.998003
0.997699
0.997785
0.998012
0.99794
0.997967
0.998482
0.9987
0.998901
0.999295
0.999705
0.999727
0.999738
0.999977
1.00001
0.999898
0.999947
1.00014
0.999885
0.9999
1.00002
1.00002
0.9998
0.999952
1.00002
0.999912
0.999921
1.00013
1.00014
1.00015
1.00045
1.00076
1.00089
1.00103
1.00142
1.00138
1.0013
1.00148
1.00154
1.00126
1.00146
1.00182
1.0013
1.00134
1.00184
0.997598
0.997731
0.997647
0.997641
0.998167
0.997949
0.997786
0.997767
0.997765
0.997767
0.997838
0.997686
0.998076
0.998605
0.998815
0.998944
0.999685
0.999727
0.999762
0.999848
1.00011
0.999874
0.999721
1.00018
0.999975
0.999937
0.999757
1.00015
1.00006
0.999791
1.00005
1.00013
1.00012
1.00011
1.00074
1.00081
1.00089
1.00133
1.00161
1.00141
1.00147
1.00152
1.00149
1.00151
1.00143
1.00132
1.00162
1.0017
1.00165
1.00162
0.997702
0.997321
0.997867
0.998276
0.998045
0.997637
0.998266
0.998346
0.997784
0.997604
0.997852
0.997564
0.997464
0.997883
0.998208
0.998579
0.998827
0.999626
0.999507
0.999782
0.999877
0.999978
0.999939
0.999848
1.00014
0.999788
1.00004
0.999991
0.999929
1.00002
1.00008
1.00031
1.00017
1.00082
1.00097
1.00123
1.00146
1.00176
1.00169
1.00146
1.00172
1.00163
1.00121
1.00137
1.00187
1.00164
1.00135
1.00174
1.00214
1.0017
0.997495
0.997607
0.998057
0.997639
0.997839
0.998312
0.998073
0.998101
0.998228
0.99815
0.997681
0.997931
0.997627
0.997228
0.997723
0.99826
0.99838
0.99869
0.999671
0.999651
0.999729
0.999886
1.00015
0.999952
0.999672
1.00022
0.999984
0.999746
0.999983
1.00016
1.00016
1.0001
1.00091
1.00114
1.00115
1.00156
1.00203
1.00166
1.00146
1.0018
1.00147
1.00147
1.00167
1.00179
1.00147
1.00198
1.0021
1.00174
1.00197
1.00219
0.997778
0.998078
0.997843
0.997092
0.997786
0.998278
0.997623
0.997744
0.99865
0.998526
0.997983
0.997888
0.99808
0.997509
0.997409
0.997513
0.998175
0.99839
0.998709
0.999456
0.999528
0.999869
0.999804
0.999925
0.999975
0.999913
0.999981
1.00009
1.00001
1.00025
1.0003
1.0009
1.00112
1.00119
1.00179
1.00189
1.00179
1.00145
1.00171
1.00172
1.00136
1.00133
1.00204
1.0022
1.00156
1.002
1.00248
1.00202
1.00167
1.00203
0.99824
0.997218
0.997381
0.997851
0.997475
0.997098
0.997561
0.998166
0.99758
0.997916
0.998542
0.998227
0.99766
0.998167
0.997373
0.997301
0.997432
0.998103
0.998167
0.998691
0.999734
0.999538
0.999694
0.999947
1.00013
0.99979
0.999919
1.00017
1.00028
1.00005
1.00087
1.00133
1.0013
1.00186
1.00204
1.00202
1.00142
1.00203
1.00168
1.00137
1.00201
1.0023
1.00166
1.00217
1.00256
1.00223
1.00178
1.0024
1.00253
1.0017
0.998018
0.997292
0.997801
0.99828
0.997677
0.997411
0.997605
0.997949
0.997257
0.997719
0.998496
0.998266
0.998197
0.997967
0.998135
0.997404
0.997346
0.99747
0.998278
0.998446
0.998754
0.999576
0.999787
0.999849
0.999861
1
1.00003
1.00003
1.00017
1.00085
1.00108
1.00115
1.00185
1.00204
1.002
1.00154
1.00187
1.00171
1.00167
1.00155
1.00212
1.00244
1.00186
1.00217
1.00223
1.00216
1.00166
1.00206
1.00249
1.00208
0.997407
0.998429
0.998242
0.997305
0.997677
0.998285
0.997352
0.997035
0.997883
0.997774
0.997232
0.997925
0.998705
0.997924
0.997813
0.998136
0.997346
0.997232
0.997429
0.998144
0.998263
0.998976
0.999683
0.999594
0.999741
1.0001
1.00023
1.00009
1.00065
1.00126
1.00133
1.00188
1.00218
1.00216
1.00162
1.00199
1.00205
1.00135
1.00196
1.00264
1.00198
1.00187
1.00266
1.00249
1.00154
1.00229
1.00265
1.00183
1.00158
1.00266
0.99781
0.997538
0.997395
0.997438
0.997314
0.99776
0.997328
0.997411
0.99728
0.997542
0.997031
0.997758
0.997914
0.998392
0.99801
0.997899
0.997938
0.997222
0.997284
0.997486
0.998448
0.998671
0.998963
0.999834
0.999934
0.9999
0.999939
1.00068
1.00094
1.00102
1.0019
1.00221
1.00229
1.00176
1.00201
1.00201
1.0016
1.00204
1.00208
1.00255
1.00221
1.00247
1.00226
1.00245
1.00214
1.0025
1.00232
1.00255
1.0024
1.00208
0.998066
0.996657
0.996975
0.998581
0.997214
0.997016
0.998121
0.998614
0.997077
0.997306
0.998386
0.997398
0.99722
0.998179
0.998654
0.997868
0.997777
0.998052
0.997233
0.997317
0.997743
0.998387
0.998791
0.999322
0.999914
0.999849
1.00032
1.00082
1.00116
1.00169
1.00212
1.00232
1.00173
1.00213
1.00212
1.00142
1.00173
1.00256
1.00236
1.00143
1.00245
1.00271
1.00125
1.00178
1.00272
1.00246
1.00122
1.00276
1.00298
1.00175
0.99672
0.99723
0.997345
0.997291
0.997223
0.997757
0.997432
0.997582
0.99749
0.997515
0.997273
0.997355
0.997312
0.997559
0.997729
0.998369
0.997886
0.997507
0.997706
0.997142
0.997132
0.997781
0.998752
0.999018
0.999362
1.00029
1.00064
1.0008
1.00165
1.0024
1.00246
1.00203
1.00236
1.00219
1.00167
1.00218
1.00235
1.00236
1.00242
1.00261
1.00231
1.00234
1.00239
1.0025
1.002
1.00259
1.00252
1.00233
1.00231
1.00304
0.996295
0.998179
0.99739
0.996312
0.997081
0.998306
0.996459
0.9967
0.99804
0.99808
0.996764
0.997357
0.998449
0.997102
0.997428
0.998318
0.998609
0.997797
0.997567
0.997728
0.997253
0.997616
0.998248
0.998938
0.999554
1.00004
1.00064
1.0013
1.00189
1.00233
1.00205
1.00233
1.00222
1.00147
1.00167
1.00234
1.00262
1.00146
1.00236
1.003
1.00176
1.00181
1.00301
1.00317
1.00159
1.00279
1.00331
1.00241
1.00156
1.00318
0.997453
0.997017
0.996505
0.99791
0.996724
0.996863
0.997384
0.997566
0.997024
0.997599
0.998215
0.997488
0.997146
0.99779
0.997697
0.997589
0.997807
0.998329
0.997689
0.997214
0.997518
0.997188
0.997471
0.998577
0.999504
1.00004
1.00088
1.00203
1.00249
1.00221
1.0026
1.00238
1.0018
1.00213
1.00232
1.00214
1.00201
1.00278
1.00238
1.0016
1.00229
1.00281
1.00208
1.00232
1.00301
1.00306
1.00183
1.00333
1.00289
1.00212
0.998037
0.996194
0.996951
0.998435
0.997217
0.996775
0.997831
0.998207
0.996729
0.997256
0.998137
0.997603
0.996873
0.997647
0.998025
0.997078
0.99769
0.998397
0.998292
0.997537
0.997195
0.997477
0.997637
0.998181
0.999187
1.00029
1.00135
1.00196
1.00224
1.00268
1.00255
1.0018
1.00163
1.00216
1.00273
1.00196
1.00222
1.00299
1.0023
1.00177
1.00264
1.00307
1.00173
1.00223
1.00295
1.00268
1.00169
1.00295
1.00357
1.00209
0.995658
0.998816
0.997256
0.996322
0.996907
0.998574
0.996441
0.996572
0.998085
0.99731
0.996688
0.997511
0.998377
0.997149
0.996922
0.998343
0.997962
0.997563
0.997924
0.998173
0.997383
0.997037
0.997662
0.997995
0.99891
1.00052
1.00161
1.00205
1.00274
1.00265
1.00196
1.00206
1.0024
1.00203
1.00156
1.00288
1.00273
1.00153
1.00241
1.00318
1.00253
1.00183
1.00342
1.0036
1.0013
1.00306
1.0037
1.00268
1.00121
1.00454
0.997114
0.997981
0.996593
0.996508
0.997167
0.997962
0.996624
0.996478
0.997876
0.997731
0.99666
0.997485
0.998147
0.997682
0.997357
0.997725
0.997868
0.997528
0.998057
0.998135
0.99767
0.99718
0.997084
0.997996
0.999183
1.00038
1.00161
1.00272
1.00288
1.00244
1.00198
1.002
1.00237
1.00207
1.00223
1.0026
1.00227
1.00178
1.00244
1.00306
1.00222
1.00228
1.00339
1.00336
1.00224
1.00292
1.00326
1.0035
1.00243
1.00294
0.998858
0.995554
0.996488
0.999681
0.996798
0.995652
0.997497
0.998636
0.996397
0.996872
0.998697
0.997522
0.99704
0.99787
0.998234
0.996999
0.997103
0.998454
0.998022
0.997615
0.998054
0.997806
0.997241
0.99786
0.999163
1.00053
1.00188
1.00271
1.00234
1.00206
1.00239
1.00209
1.00155
1.00275
1.00298
1.00174
1.0021
1.00292
1.00251
1.00116
1.00306
1.00378
1.00133
1.00249
1.00444
1.00318
1.00046
1.00373
1.00446
1.00142
0.995808
0.996339
0.996617
0.996813
0.995932
0.996534
0.996643
0.996916
0.996895
0.996704
0.997071
0.997354
0.996948
0.997255
0.997639
0.997799
0.997636
0.997381
0.997722
0.997796
0.9977
0.997571
0.997452
0.997749
0.998916
1.00088
1.00226
1.00263
1.00252
1.00244
1.00231
1.00222
1.00248
1.00236
1.0023
1.00243
1.00264
1.00293
1.00264
1.00298
1.0033
1.00308
1.00315
1.00345
1.00332
1.00396
1.00351
1.00338
1.00348
1.00469
0.99507
0.999793
0.997893
0.994122
0.997285
0.999663
0.996252
0.99625
0.998482
0.997963
0.996221
0.997506
0.998986
0.997367
0.997258
0.998674
0.998312
0.997446
0.997917
0.99863
0.998054
0.997636
0.998032
0.998349
0.999306
1.00079
1.00188
1.00227
1.00262
1.00219
1.00142
1.00195
1.00257
1.00181
1.00136
1.00266
1.00265
1.00096
1.00241
1.00389
1.00218
1.00151
1.00381
1.00376
1.00047
1.00296
1.00584
1.00227
1.00071
1.00498
0.997582
0.995887
0.994716
0.997935
0.995995
0.995766
0.997005
0.996904
0.99591
0.995943
0.997292
0.997022
0.996637
0.997252
0.997485
0.997131
0.997075
0.997643
0.997409
0.996955
0.997445
0.997741
0.99757
0.998027
0.999465
1.00092
1.00225
1.00275
1.00256
1.00254
1.00294
1.00272
1.00246
1.00282
1.00273
1.0025
1.00269
1.00342
1.00315
1.00271
1.00397
1.00406
1.00314
1.00302
1.00438
1.0043
1.00204
1.0059
1.00461
1.00231
0.998743
0.992503
0.996022
0.999625
0.996419
0.994554
0.998257
0.999015
0.995635
0.996785
0.998803
0.997783
0.996573
0.998046
0.999026
0.99776
0.997764
0.9989
0.998296
0.997724
0.998422
0.998654
0.99823
0.998554
0.999773
1.00098
1.00215
1.0024
1.00174
1.00169
1.0023
1.00179
1.00109
1.0022
1.00244
1.00107
1.00181
1.00347
1.00253
1.00123
1.00327
1.00448
1.00116
1.00182
1.00538
1.00373
1.0008
1.00439
1.00743
1.0017
0.992735
0.999158
0.99671
0.994159
0.995694
0.998835
0.995252
0.994877
0.997784
0.997006
0.995765
0.996319
0.997576
0.99686
0.996735
0.99752
0.99754
0.996908
0.997139
0.99744
0.99707
0.997152
0.997908
0.998711
0.999745
1.00126
1.00228
1.00275
1.00303
1.0029
1.00255
1.00278
1.00298
1.00247
1.00255
1.00337
1.00313
1.00232
1.00361
1.00437
1.00322
1.00221
1.00511
1.00488
1.00136
1.00473
1.00665
1.00337
1.00121
1.00891
0.996245
0.999658
0.997234
0.993189
0.997219
0.998962
0.99566
0.995952
0.998284
0.997923
0.996319
0.997329
0.998159
0.997423
0.997592
0.998441
0.99855
0.998163
0.998554
0.998353
0.997848
0.998295
0.998777
0.999074
1.00001
1.00157
1.00222
1.00213
1.0022
1.00223
1.00154
1.00128
1.00178
1.00133
1.00142
1.00257
1.00293
1.00193
1.00272
1.00395
1.00232
1.00166
1.00406
1.00468
1.00136
1.00315
1.00702
1.00322
1.00189
1.00459
0.999028
0.988779
0.992998
1.00125
0.994939
0.992438
0.997216
0.998524
0.995367
0.995203
0.998289
0.996995
0.995732
0.997416
0.998263
0.996937
0.996868
0.998025
0.997518
0.996449
0.997132
0.997807
0.997625
0.998503
1.00013
1.00187
1.00313
1.00341
1.00258
1.00271
1.00347
1.00262
1.00185
1.00296
1.00333
1.00206
1.00254
1.0043
1.00337
1.0017
1.00469
1.00492
1.00172
1.0026
1.00775
1.00524
0.999523
1.00819
1.0109
0.999658
0.993487
0.993909
0.996789
0.998344
0.995186
0.996055
0.997622
0.997327
0.996528
0.997132
0.99724
0.996706
0.996921
0.997918
0.997938
0.997783
0.998162
0.998601
0.998078
0.997941
0.998112
0.997856
0.998289
0.999729
1.00086
1.00176
1.00245
1.00298
1.00244
1.0016
1.00163
1.00155
1.00093
1.00164
1.00248
1.00233
1.0023
1.00349
1.00373
1.00267
1.00286
1.00392
1.00286
1.00237
1.00408
1.00579
1.00183
1.0042
1.00726
1.00827
0.991525
1.00537
0.996339
0.989578
0.996874
0.999988
0.994624
0.994347
0.998796
0.997607
0.99502
0.996656
0.998356
0.996863
0.996643
0.9984
0.998352
0.99749
0.997736
0.997902
0.99695
0.996916
0.997969
0.998687
1.00023
1.00233
1.00334
1.00355
1.00387
1.00294
1.00149
1.00187
1.00243
1.00153
1.0015
1.0038
1.00371
1.00161
1.00349
1.0055
1.00202
1.00079
1.00644
1.00569
0.998993
1.00481
1.0123
1.00112
0.996746
1.02282

VECTORS velocity double
-1.04087e-16 -7.28611e-17 0
2.74096e-16 2.01235e-16 0
1.07557e-16 1.00618e-16 0
-5.89828e-17 -1.38783e-17 0
1.04087e-16 5.20436e-17 0
2.39401e-16 3.46957e-18 0
4.71862e-16 1.76948e-16 0
2.4287e-17 1.38783e-16 0
-1.04087e-16 -1.04087e-16 0
1.24905e-16 1.21435e-16 0
3.01853e-16 7.28611e-17 0
2.94914e-16 1.28374e-16 0
3.2961e-16 1.73479e-17 0
8.67394e-17 -1.596e-16 0
3.57366e-16 -1.56131e-16 0
1.6307e-16 3.2267e-16 0
3.81653e-16 -1.42253e-16 0
2.60218e-16 -1.38783e-16 0
1.35313e-16 1.42253e-16 0
6.93915e-17 4.16349e-17 0
-6.93915e-18 1.73479e-17 0
2.53279e-16 7.63306e-17 0
2.18583e-16 -7.63306e-17 0
6.93915e-17 -1.35313e-16 0
-3.12262e-17 1.04087e-17 0
5.55132e-17 7.98002e-17 0
9.71481e-17 -4.16349e-17 0
1.14496e-16 4.8574e-17 0
-1.42253e-16 1.76948e-16 0
-1.83887e-16 1.38783e-17 0
-2.60218e-16 -2.77566e-17 0
-3.33079e-16 -2.77566e-17 0
-1.49192e-16 -6.93915e-17 0
-1.21435e-16 -3.81653e-17 0
-1.83887e-16 1.21435e-16 0
-8.67394e-17 3.46957e-18 0
-2.60218e-16 -9.36785e-17 0
-2.18583e-16 -1.38783e-17 0
-1.14496e-16 -9.71481e-17 0
-4.16349e-17 2.25522e-16 0
-3.36549e-16 9.71481e-17 0
-1.73479e-16 9.02089e-17 0
-2.77566e-16 3.46957e-18 0
-1.14496e-16 1.11026e-16 0
-4.8574e-17 -7.28611e-17 0
-1.97766e-16 -7.63306e-17 0
-5.20436e-17 7.63306e-17 0
-7.98002e-17 2.4287e-17 0
1.90827e-16 -1.04087e-16 0
-3.53897e-16 1.73479e-17 0
7.97902e-07 -2.22064e-08 0
7.54671e-07 -2.86809e-08 0
7.01075e-07 -3.44005e-08 0
6.38508e-07 -3.92301e-08 0
5.68571e-07 -4.30645e-08 0
4.93011e-07 -4.58334e-08 0
4.13658e-07 -4.75084e-08 0
3.32341e-07 -4.81187e-08 0
2.5077e-07 -4.7769e-08 0
1.70414e-07 -4.66348e-08 0
9.24481e-08 -4.48936e-08 0
1.78517e-08 -4.2622e-08 0
-5.2425e-08 -3.97921e-08 0
-1.17444e-07 -3.64349e-08 0
-1.76511e-07 -3.27743e-08 0
-2.29367e-07 -2.90964e-08 0
-2.76085e-07 -2.553e-08 0
-3.16842e-07 -2.20834e-08 0
-3.51883e-07 -1.88174e-08 0
-3.81592e-07 -1.58249e-08 0
-4.06443e-07 -1.31276e-08 0
-4.26917e-07 -1.07096e-08 0
-4.4347e-07 -8.55604e-09 0
-4.56509e-07 -6.62283e-09 0
-4.6635e-07 -4.84615e-09 0
-4.73201e-07 -3.15705e-09 0
-4.77143e-07 -1.47804e-09 0
-4.78133e-07 2.63699e-10 0
-4.76007e-07 2.13978e-09 0
-4.70493e-07 4.20591e-09 0
-4.61248e-07 6.49141e-09 0
-4.4788e-07 9.02952e-09 0
-4.29968e-07 1.18186e-08 0
-4.07149e-07 1.47875e-08 0
-3.79159e-07 1.78971e-08 0
-3.45768e-07 2.1161e-08 0
-3.06809e-07 2.44747e-08 0
-2.62406e-07 2.75753e-08 0
-2.13086e-07 3.02577e-08 0
-1.59587e-07 3.25054e-08 0
-1.02638e-07 3.43593e-08 0
-4.29758e-08 3.57553e-08 0
1.84859e-08 3.65253e-08 0
8.05508e-08 3.64985e-08 0
1.41786e-07 3.55693e-08 0
2.00634e-07 3.37029e-08 0
2.55522e-07 3.09179e-08 0
3.04941e-07 2.72713e-08 0
3.47504e-07 2.28513e-08 0
3.81999e-07 1.77737e-08 0
1.20682e-07 -8.45489e-08 0
-4.57862e-07 -6.60824e-08 0
-4.25853e-07 -7.27429e-08 0
-3.80042e-07 -7.91311e-08 0
-3.24549e-07 -8.52837e-08 0
-2.6396e-07 -9.12125e-08 0
-2.03201e-07 -9.70053e-08 0
-1.47641e-07 -1.03021e-07 0
-1.03376e-07 -1.09996e-07 0
-7.71392e-08 -1.1863e-07 0
-7.50724e-08 -1.28634e-07 0
-1.00741e-07 -1.38402e-07 0
-1.54474e-07 -1.46358e-07 0
-2.34978e-07 -1.52325e-07 0
-3.40492e-07 -1.56318e-07 0
-4.67229e-07 -1.56863e-07 0
-6.08376e-07 -1.52789e-07 0
-7.56667e-07 -1.45353e-07 0
-9.06379e-07 -1.35784e-07 0
-1.05146e-06 -1.23029e-07 0
-1.18426e-06 -1.06319e-07 0
-1.29743e-06 -8.66036e-08 0
-1.38498e-06 -6.45738e-08 0
-1.44179e-06 -4.03789e-08 0