# vtk DataFile Version 4.0
SiwiRVisFile
ASCII
DATASET STRUCTURED_POINTS
DIMENSIONS 25 25 1
ORIGIN 0 0 0
SPACING 1 1 1
POINT_DATA 625

SCALARS flags double 1
LOOKUP_TABLE default
1
1
1
1
1
1
1
1
1
1
1
1
1
1
1
1
1
1
1
1
1
1
1
1
1
1
1
1
1
1
1
1
1
1
1
1
1
1
1
1
1
1
1
1
1
1
1
1
1
1
1
1
1
1
1
1
1
1
1
1
1
1
1
1
1
1
1
1
1
1
1
1
1
1
1
1
1
1
1
1
1
1
1
1
1
1
1
1
1
1
1
1
1
1
1
1
1
1
1
1
1
1
1
1
1
1
1
1
1
1
1
1
1
1
1
1
1
1
1
1
1
1
1
1
1
1
1
1
1
1
1
1
1
1
1
1
1
1
1
1
1
1
1
1
1
1
1
1
1
1
1
1
1
1
1
1
1
1
1
1
1
1
1
1
1
1
1
1
1
1
1
1
1
1
1
1
1
1
1
1
1
1
1
1
1
1
1
1
1
1
1
1
1
1
1
1
1
1
1
1
1
1
1
1
1
1
1
1
1
1
1
1
1
1
1
1
1
1
1
1
1
1
1
1
1
1
1
1
1
1
1
1
1
1
1
1
1
1
1
1
1
1
1
1
1
1
1
1
1
1
1
1
1
1
1
1
1
1
1
1
1
1
1
1
1
1
1
1
1
1
1
1
1
1
1
1
1
1
1
1
1
1
1
1
1
1
1
1
1
1
1
1
1
1
1
1
1
1
1
1
1
1
1
1
1
1
1
1
1
1
1
1
1
1
1
1
1
1
1
1
1
1
1
1
1
1
1
1
1
1
1
1
1
1
1
1
1
1
1
1
1
1
1
1
1
1
1
1
1
1
1
1
1
1
1
1
1
1
1
1
1
1
1
1
1
1
1
1
1
1
1
1
1
1
1
1
1
1
1
1
1
1
1
1
1
1
1
1
1
1
1
1
1
1
1
1
1
1
1
1
1
1
1
1
1
1
1
1
1
1
1
1
1
1
1
1
1
1
1
1
1
1
1
1
1
1
1
1
1
1
1
1
1
1
1
1
1
1
1
1
1
1
1
1
1
1
1
1
1
1
1
1
1
1
1
1
1
1
1
1
1
1
1
1
1
1
1
1
1
1
1
1
1
1
1
1
1
1
1
1
1
1
1
1
1
1
1
1
1
1
1
1
1
1
1
1
1
1
1
1
1
1
1
1
1
1
1
1
1
1
1
1
1
1
1
1
1
1
1
1
1
1
1
1
1
1
1
1
1
1
1
1
1
1
1
1
1
1
1
1
1
1
1
1
1
1
1
1
1
1
1
1
1
1
1
1
1
1
1
1
1
1
1
1
1
1
1
1
1
1
1
1
1
1
1
1
1
1
1
1
1
1
1
1
1
1
1
1
1
1
1
1
1
1
1
1
1
1
1
1
1
1
1
1
1
1
1
1
1
1
1
1
1
1
1
1
1
1
1
1
1
1
1
1
1

SCALARS density double 1
LOOKUP_TABLE default
0.999762
0.999791
0.999907
0.999787
0.999713
0.999943
0.999949
0.999673
0.99982
1.00012
0.999832
0.999657
1.00009
1.00009
0.999647
0.999875
1.00023
0.999837
0.999696
1.00019
1.0001
0.999664
1
1.00027
0.999804
1.00007
0.999532
0.999705
1.00012
0.999815
0.999601
0.999933
1.00002
0.99975
0.999795
0.999994
0.999931
0.999843
0.999888
0.999942
0.999973
0.999924
0.999847
0.999972
1.00008
0.999903
0.999824
1.00009
1.0001
0.999783
0.999747
0.999942
0.999793
0.999752
0.999925
0.999836
0.999724
0.999968
0.999957
0.999677
0.999909
1.00012
0.99975
0.999759
1.00017
0.99994
0.99964
1.00008
1.00018
0.999657
0.999872
1.00034
0.999871
0.999623
1.00023
0.999612
1.00013
0.999922
0.999501
0.999825
1.00011
0.999789
0.999631
0.999982
1.00004
0.999753
0.999791
1.00003
0.999982
0.999795
0.999869
1.00004
0.999976
0.999839
0.999922
1.00005
1
0.999889
0.999937
1.00005
1.00004
0.999489
0.999739
1.00003
0.999786
0.999718
0.999997
0.999832
0.999717
1.00002
0.999921
0.999716
1.00001
1.00004
0.999705
0.99992
1.00016
0.999749
0.999751
1.00031
0.999995
0.999543
1.00015
1.00036
0.999603
0.999805
0.999402
0.999739
1.00013
0.99986
0.999571
0.999873
1.00011
0.999744
0.999638
1.00003
1.00008
0.99975
0.999791
1.0001
0.999952
0.999708
0.999951
1.0001
0.999874
0.99988
1.00009
0.999984
0.999912
1.00004
0.999235
1.00021
0.999757
1
0.999907
1.00009
0.999552
0.999679
1.00006
0.999833
0.999812
1.00003
0.999864
0.999826
1.00007
0.999895
0.99971
1
1
1
0.999985
1.00046
0.999759
0.999566
1.00045
0.999682
0.999731
0.999437
1
0.999759
0.99994
0.999713
0.999477
0.9999
1.00017
0.999816
0.999711
1.0001
1.00009
0.999651
0.999827
1.00018
1
1
1
1.00008
0.999707
1.00014
1.00021
0.999733
0.999918
0.99854
0.999305
1
0.999519
0.999095
1.00005
0.99998
1
0.999935
1.00006
0.999874
0.999881
0.999947
0.999855
1.00001
0.999993
1
1
1
0.99997
0.999504
1.0003
1.0005
0.999526
0.998924
0.999575
0.999612
1
0.999697
0.999603
0.999413
0.999625
0.999729
0.999722
0.999981
1.00014
0.99977
0.99976
1.00023
0.999955
0.999539
1.00022
1.0004
0.999559
1.00002
1.00065
0.999719
0.99962
1.0006
0.998856
1.00032
0.999292
0.998101
0.999526
1.00029
0.999101
0.999139
1.00021
0.999965
0.999601
0.999873
1.00011
0.999998
0.999913
0.999829
0.999948
1.00024
1.00004
0.999607
1.00022
1.00051
0.999753
0.999579
1.0005
1.00002
0.998521
0.998863
1.00004
0.999095
0.998844
0.999786
1
0.999665
0.999664
1
0.999858
1.00002
1.00007
0.999661
1.00001
1.00044
0.999595
0.999663
1.0008
0.999994
0.999149
1.00065
1.00068
0.999017
0.999421
0.998121
0.999267
1.00028
0.998966
0.998308
0.999591
1.00015
0.998711
1
1.00025
1.00007
0.999728
0.999914
1.00011
1.00004
0.999894
0.999832
1.0001
1.00026
0.999916
0.999761
1.00019
1.00045
0.999807
0.998106
1.00066
0.999575
0.997677
0.999575
1.00039
0.998437
0.998826
0.99982
0.999978
0.999683
0.999988
0.999991
0.999867
1.0002
0.999879
0.999511
1.00055
1.00037
0.998939
1.00023
1.00131
0.999078
0.999062
1.00157
0.999358
0.999898
0.998916
0.998557
0.999437
0.999708
0.998859
0.998815
0.999886
1.00003
0.999559
0.999814
1.00027
0.999957
0.999678
1.00003
1.00017
0.999952
0.999804
1.00011
1.00004
1
1.00028
0.999824
0.99971
1.00053
0.996898
0.998783
1.00134
0.998471
0.997414
1.00052
1
0.99941
0.999334
1.0002
0.999997
0.999751
1.00009
0.999865
0.999973
1.00033
0.999372
0.999637
1.00145
0.999635
0.998336
1.00138
1.0014
0.997909
0.998192
0.999069
0.999589
0.998894
0.999015
0.999142
0.998888
1
0.9997
0.99983
1.00007
1
0.99963
1.00004
1.00031
0.999662
0.999669
1.00026
1.00017
0.999455
1.00028
1.00065
0.999143
0.999974
1.00147
0.997588
1.00212
0.9993
0.996213
0.99996
1.00124
0.99723
1
1.00048
1.00013
0.999101
1.00012
1.00043
0.999603
0.999793
1.00021
0.999697
1.00011
1
0.998118
1.00053
1.00226
0.998448
0.99813
1.00258
1.00092
0.997517
0.998099
1.00058
0.99874
0.997914
0.999925
1
0.999778
0.999969
0.999837
0.999915
1.00014
0.999883
0.999547
1.00022
1.00016
0.999559
1
1.0014
0.999255
0.998398
1.0021
1.00102
0.99692
1.00001
0.995194
0.998862
1.00199
0.998121
0.996943
1.00059
1
0.999142
0.999476
1.00079
0.999648
0.999257
1.00063
1.00028
0.999027
1
1
1
1.00156
0.999687
0.99764
1.00169
1.00234
0.997385
0.995091
1.00222
1.00004
0.995165
0.999357
1.00117
0.997922
0.998527
1.00055
1.00002
0.999844
0.999913
0.999895
0.999653
1.00043
1.00007
1
1
1
1
1
1
1
0.998703
1.00667
0.999023
1.00229
0.997654
0.995695
0.999631
1.00055
0.997989
0.999123
1.00074
0.999793
0.998927
1.00028
1.00092
0.998902
0.999328
1.00145
1
1
1
1
1.00489
1.01074
1.00157
1.00144
1.00791
1.00238
0.989849
0.996724
1.00468
1
0.99645
1.00062
1.00054
0.998457
1.00021
1
0.999835
0.999842
1.00091
0.999074
0.998719
1.0023
0.99771
0.999171
1.0098
1.00584
0.995193
1.00578
1.01459
0.998503
0.993636
0.995898
1.00024
0.999232
0.995749
0.998
0.999674
0.999065
1.00007
1.00211
1.00124
1.00691
1
1.0008
1.0012
0.998333
1
0.999493
1.00339
1.00618
1.00167
1.0008
1.00791
1.00704
1.0039
0.993925
1.00951
0.998654
0.991934
0.999694
1.00068
0.997068
0.998466
1.00131
1.00127
1.00308
1.0083
1.00219
0.99495
0.999797
1.0031
1.00091
1.00638
1.00568
0.995283
1.00258
1.01483
1.00047
0.992905
1.0241

VECTORS velocity double
-5.99459e-07 4.29568e-06 0
-0.00014331 8.27587e-05 0
-0.000263908 5.4379e-06 0
-0.00026004 -1.93108e-05 0
-0.000248267 2.24925e-05 0
-0.000440573 9.71256e-05 0
-0.00054928 -2.07108e-05 0
-0.000490773 -2.70901e-05 0
-0.000497833 4.33742e-05 0
-0.000601926 1.30009e-05 0
-0.000546644 -4.75029e-05 0
-0.000469693 -8.59772e-06 0
-0.000436274 -6.15064e-06 0
-0.00043283 -1.2783e-05 0
-0.000403076 1.40745e-06 0
-0.000391182 -1.1523e-05 0
-0.000351037 -1.03205e-05 0
-0.000381296 2.22429e-05 0
-0.000427439 3.2295e-05 0
-0.000363282 -6.68122e-05 0
-0.000226371 2.97591e-06 0
-0.000245539 3.99116e-05 0
-0.000207037 -7.15166e-06 0
-9.41234e-05 -3.55149e-05 0
2.608e-06 2.34186e-05 0
-8.79549e-05 0.000134483 0
-0.000402081 0.000352047 0
-0.000612546 8.87653e-05 0
-0.000774429 4.64733e-05 0
-0.00112794 0.000276136 0
-0.00138321 0.000245562 0
-0.00133447 -1.50001e-05 0
-0.00149117 6.39142e-05 0
-0.00173564 0.000148115 0
-0.00166746 -6.28379e-05 0
-0.00142589 -0.000159018 0
-0.00145455 -1.11606e-05 0
-0.00140541 -0.000102759 0
-0.00111145 -0.000146144 0
-0.00100412 3.09237e-05 0
-0.00121031 3.03095e-05 0
-0.00119876 -8.43557e-05 0
-0.00102693 1.47882e-06 0
-0.00103156 6.01091e-05 0
-0.0011237 -0.000190429 0
-0.000879204 -0.000232145 0
-0.000532137 -0.00011429 0
-0.000389632 -0.000126445 0
-0.000296377 -0.000270258 0
-7.33732e-05 -0.000126081 0
-0.000124258 0.000443845 0
-0.000323688 0.000529419 0
-0.000722266 0.000511717 0
-0.0014265 0.000468435 0
-0.00169386 0.00050532 0
-0.00167226 0.000282993 0
-0.00198322 0.000265414 0
-0.00245662 0.00030886 0
-0.00240502 7.83409e-05 0
-0.00229632 -0.000138932 0
-0.00234794 -0.000233847 0
-0.00210463 -0.000231426 0
-0.00174864 -0.000286733 0
-0.00172183 -0.000261648 0
-0.00161715 -4.39842e-05 0
-0.00139675 5.93788e-05 0
-0.00147195 -1.45419e-05 0
-0.00166645 -5.42883e-05 0
-0.00144162 -7.28607e-05 0
-0.00125038 -0.000154405 0
-0.00127037 -0.000439033 0
-0.00098149 -0.00051436 0
-0.000436842 -0.000291301 0
-0.000216475 -0.000299098 0
-8.24808e-05 -0.000304234 0
6.14287e-05 0.000550653 0
-0.000448388 0.00103602 0
-0.00140798 0.00124786 0
-0.00183316 0.000855726 0
-0.00166642 0.000454836 0
-0.00189112 0.000563516 0
-0.00246704 0.000734233 0
-0.00279306 0.000552399 0
-0.00283102 2.52366e-05 0
-0.00293371 -0.000159483 0
-0.00287397 -0.000370392 0
-0.00242161 -0.000622794 0
-0.00199943 -0.000512294 0
-0.00190172 -0.000360552 0
-0.00171059 -0.000246026 0
-0.00145509 -4.16125e-05 0
-0.00150416 0.000147823 0
-0.0017859 -1.44303e-05 0
-0.00171833 -0.000298914 0
-0.00134148 -0.000397375 0
-0.00114412 -0.000548621 0
-0.00111212 -0.000897496 0
-0.000689264 -0.000896786 0
-0.000152662 -0.000630078 0
6.1529e-05 -0.000415387 0
-0.000158198 0.000690933 0
-0.00116709 0.00234958 0
-0.00175735 0.0015717 0
-0.00131452 0.00063303 0
-0.00127482 0.000549995 0
-0.00201851 0.00127596 0
-0.00253222 0.00107168 0
-0.00281402 0.000789098 0
-0.00330851 0.000335615 0
-0.00334786 -0.000339247 0
-0.00283089 -0.00077468 0
-0.00256729 -0.000928856 0
-0.00230561 -0.00088414 0
-0.00176085 -0.000680883 0
-0.00145872 -0.000386601 0
-0.00150544 -0.00012526 0
-0.0012654 0.000131404 0
-0.000992215 9.29059e-05 0
-0.00125595 -0.000201818 0
-0.00149079 -0.00075962 0
-0.00116606 -0.000678642 0
-0.000909801 -0.000879003 0
-0.000780498 -0.00126096 0
-0.000434655 -0.00115255 0
-4.06307e-05 -0.000297657 0
-0.000388888 0.00150456 0
-0.000963062 0.002963 0
-0.000998829 0.00145293 0
-0.000760962 0.000178995 0
-0.000677826 0.000926842 0
-0.00111421 0.0019687 0
-0.00206177 0.00189387 0
-0.0032331 0.00132011 0
-0.00370131 0.000490843 0
-0.00329148 -0.000664754 0
-0.00268464 -0.00121668 0
-0.00243753 -0.0012235 0
-0.00216377 -0.00128561 0
-0.00169452 -0.00106799 0
-0.00119022 -0.000711296 0
-0.000813569 -0.000374054 0
-0.000576757 -6.64707e-05 0
-0.000462769 4.41736e-05 0
-0.000442661 -5.73043e-05 0
-0.00075669 -0.000502034 0
-0.00102366 -0.000910869 0
-0.000740613 -0.00139809 0
-0.000439039 -0.00137423 0
-0.000532155 -0.00141726 0
-0.000248842 -0.000820653 0
-0.000106375 0.00225116 0
-0.00017011 0.00258899 0
-4.55345e-05 0.00152432 0
0 0 0
-0.000188453 0.00132915 0
-0.000863872 0.00255839 0
-0.00208722 0.00339363 0
-0.00303857 0.00212366 0
-0.00283144 0.000137588 0
-0.00265289 -0.00101062 0
-0.00270707 -0.00154613 0
-0.00224777 -0.00166229 0
-0.00169968 -0.00158875 0
-0.00159996 -0.00144021 0
-0.001276 -0.00126495 0
-0.000654564 -0.000756997 0
-0.000151522 -0.000392125 0
0 0 0
0 0 0
0 0 0
-0.00048131 -0.000592998 0
-0.000788554 -0.0017492 0
-0.000296327 -0.00148844 0
-5.45996e-05 -0.00113215 0
-2.33377e-05 -0.00112587 0
0.00040777 0.00181491 0
0.000224353 0.00309768 0
-0.000149165 0.0014539 0
0 0 0
-0.000101956 0.00167044 0
-0.00103546 0.0038286 0
-0.00179837 0.0039824 0
-0.00170747 0.00234099 0
-0.00146653 -6.18919e-05 0
-0.00145676 -0.00110152 0
-0.00164 -0.0015392 0
-0.0017986 -0.00183659 0
-0.00189584 -0.0017368 0
-0.00176601 -0.0018409 0
-0.00123894 -0.0016785 0
-0.000617249 -0.00131218 0
-0.000119791 -0.000829401 0
0 0 0
0 0 0
0 0 0
-4.6922e-05 -0.000409371 0
-0.000428471 -0.00132395 0
-0.000481172 -0.00228111 0
0.000124504 -0.00177068 0
0.000280524 -0.000881228 0
-0.000224748 0.0015173 0
-0.000347775 0.00373898 0
-7.96594e-05 0.00110922 0
0 0 0
-0.000114321 0.00199196 0
-0.000671773 0.00509812 0
-0.000743376 0.00358584 0
-0.000225408 0.00170554 0
0 0 0
-0.000439254 -0.00062894 0
-0.00122586 -0.00103962 0
-0.00196763 -0.00149619 0
-0.00214054 -0.0018417 0
-0.00155175 -0.00224639 0
-0.00122371 -0.00196377 0
-0.00136126 -0.001924 0
-0.000654068 -0.00136913 0
0 0 0
0 0 0
0 0 0
8.73449e-05 -0.000237188 0
0.000185066 -0.000921241 0
-8.25807e-05 -0.00217691 0
-0.000454477 -0.00206803 0
-0.000211692 -0.000611315 0
-0.000282165 0.00228387 0
-5.82562e-05 0.00290538 0
0.000252871 0.00118071 0
0 0 0
-0.000821616 0.00284066 0
-0.00174526 0.00486007 0
-0.0014868 0.00365191 0
-0.00108514 0.0012787 0
-0.000986894 9.86886e-05 0
-0.00100123 -9.45033e-05 0
-0.00148897 -4.80895e-05 0
-0.00211207 -0.00116018 0
-0.00210688 -0.00207144 0
-0.00223085 -0.00231927 0
-0.00228423 -0.00221182 0
-0.00195874 -0.00225202 0
-0.00199713 -0.00149014 0
-0.00185342 -0.000792413 0
-0.000985001 -0.000271042 0
-0.000757825 -9.43061e-05 0
-0.000567539 -0.000391908 0
0.000107161 -0.00191617 0
0.000359624 -0.00146088 0
-0.000347462 -0.00154191 0
-0.000339214 -0.00161188 0
0.000306199 0.0022626 0
0.000629654 0.00228132 0
0.000296864 0.00173519 0
-0.00132298 0.00129482 0
-0.00211858 0.00375321 0
-0.00217453 0.00482182 0
-0.00261185 0.00385101 0
-0.00214957 0.000642604 0
-0.00114049 -0.000386058 0
-0.00151081 0.000374835 0
-0.00221299 0.000293316 0
-0.00166613 -0.00128601 0
-0.00153672 -0.00184465 0
-0.00263651 -0.00180748 0
-0.00324808 -0.00219697 0
-0.00301878 -0.00222394 0
-0.00323147 -0.00113882 0
-0.00372233 -0.00136812 0
-0.00291291 -0.000864274 0
-0.00166466 -0.000685115 0
-0.00105613 -0.000545698 0
-0.00114652 -0.00219795 0
-0.000501926 -0.00163993 0
0.000338136 -0.00125552 0
0.000326543 -0.00149752 0
0.00044301 0.00114633 0
0.000128083 0.0035378 0
-0.000907353 0.0024751 0
-0.00143261 0.00218845 0
-0.00258624 0.00452336 0
-0.00367801 0.00556793 0
-0.00182282 0.0020622 0
0 0 0
-0.000916152 0.000130464 0
-0.000928235 0.000380217 0
0 0 0
-0.00104684 -0.000726352 0
-0.0025469 -0.000952402 0
-0.00274052 -0.00143251 0
-0.0028457 -0.00169888 0
-0.00400618 -0.00170931 0
-0.00423669 -0.00155095 0
-0.00360247 -0.00115839 0
-0.00384818 -0.00136004 0
-0.00364897 -0.00225935 0
-0.00193874 -0.00149644 0
-0.00147804 -0.00175443 0
-0.00136123 -0.00303152 0
-0.00032539 -0.00277564 0
0.000323462 -0.000729738 0
-0.000642342 0.00140279 0
-0.000806234 0.00385897 0
-0.000638943 0.00337149 0
-0.00248577 0.00346162 0
-0.00373862 0.00508085 0
-0.00209193 0.00433198 0
-0.000758048 0.000369599 0
-0.00184823 0.000359335 0
-0.00131398 -0.000193865 0
0 0 0
-0.000480534 0.000463322 0
-0.00162694 0.000580926 0
-0.00238751 -0.000233269 0
-0.00256833 -0.00124562 0
-0.00312927 -0.000940024 0
-0.00428186 -0.00093857 0
-0.00450609 -0.0017393 0
-0.00396546 -0.0012537 0
-0.00379583 -0.00144779 0
-0.00415176 -0.00248114 0
-0.00322908 -0.00274051 0
-0.00158094 -0.00259535 0
-0.00108281 -0.00259978 0
-0.00192581 -0.00311551 0
-0.000924756 -0.00147962 0
-0.000251832 0.00278004 0
-0.000347846 0.00250356 0
-0.00088855 0.00450881 0
-0.00287262 0.00618945 0
-0.0034025 0.00449891 0
-0.00312536 0.00275898 0
-0.00473876 0.00209931 0
-0.00485669 -1.53974e-05 0
-0.00323268 -0.0016314 0
-0.0030159 -0.000430592 0
-0.00314529 0.00131393 0
-0.00270561 0.000982235 0
-0.00200258 -0.00020654 0
-0.00286457 -0.000382869 0
-0.00368977 -0.000391755 0
-0.00311978 -0.000882128 0
-0.00363088 -0.000826655 0
-0.00516957 -0.00173195 0
-0.00417621 -0.00235299 0
-0.00335119 -0.00191079 0
-0.00401839 -0.00351967 0
-0.00347156 -0.00516236 0
-0.00112387 -0.00259918 0
-0.000589496 -0.00255885 0
-0.000184634 -0.00345461 0
0.000509708 0.00239982 0
-0.000568569 0.00401373 0
-0.00250336 0.00596686 0
-0.00245237 0.00628864 0
-0.00224784 0.00489688 0
-0.00368181 0.00414218 0
-0.00427804 0.00286998 0
-0.00469968 -0.000414085 0
-0.00481169 -0.00222245 0
-0.00415379 -0.00100265 0
-0.00364586 0.000953492 0
-0.00288704 6.25795e-06 0
-0.00234709 -0.000505535 0
-0.00241526 0.00016448 0
-0.00250413 -0.000207771 0
-0.0027256 -0.000744451 0
-0.00349219 0.000294554 0
-0.00453914 -0.00144754 0
-0.00447637 -0.0024024 0
-0.0036074 -0.00307456 0
-0.00274299 -0.00304666 0
-0.00392447 -0.00500288 0
-0.00284797 -0.00522012 0
-0.000276948 -0.00414488 0
0.000895696 -0.00251262 0
-4.02154e-05 0.00167636 0
-0.00138631 0.00711791 0
-0.00220862 0.00636533 0
-0.00164207 0.00473511 0
-0.00219013 0.00635444 0
-0.0033461 0.0058574 0
-0.00177276 0.000881088 0
0 0 0
-0.00174043 -0.00123676 0
-0.00283822 -0.00115095 0
-0.00132244 -0.000337731 0
-0.000919207 -0.000351806 0
-0.00159472 4.26773e-05 0
-0.0012031 -0.000282794 0
-0.00102589 3.34652e-06 0
-0.00280201 0.000596271 0
-0.00273196 2.59786e-05 0
-0.00147198 -0.00109158 0
-0.00356933 -0.000800456 0
-0.00593737 -0.00504262 0
-0.00360605 -0.00355092 0
-0.00284179 -0.00376791 0
-0.00331539 -0.00683289 0
-0.00299508 -0.00720423 0
-0.000429184 -0.00219785 0
-0.00158117 0.00404967 0
-0.00171386 0.00586685 0
-9.78225e-05 0.0061092 0
-0.00191969 0.00683803 0
-0.00264052 0.00583409 0
-0.000214793 0.00361979 0
0.000648899 0.000471529 0
0 0 0
0.000264116 -0.000368119 0
8.20313e-05 -0.00102482 0
-0.000182632 -0.00121973 0
0 0 0
-0.000171402 0.000205772 0
-0.000775487 -9.00715e-05 0
-0.00123816 0.000477499 0
-0.00117348 0.00106069 0
-0.000761574 -0.000715614 0
-0.00112941 -7.85381e-05 0
-0.00144998 0.000321358 0
-0.00335789 -0.0027833 0
-0.0047445 -0.00452094 0
-0.00370671 -0.00654299 0
-0.00175771 -0.00482703 0
-0.00398137 -0.00668583 0
-0.00199813 -0.00612906 0
0.000732438 0.00540446 0
0.000591649 0.00434182 0
-0.00182079 0.00753704 0
-0.00404851 0.0090869 0
-0.00297566 0.00417725 0
-0.00105461 0.00126379 0
-0.000239774 0.00125785 0
0 0 0
-0.000235264 -0.000410981 0
-0.000440457 -0.000919678 0
-0.00102107 -0.000580562 0
-0.000725814 -0.000284769 0
0.000236997 -0.000219312 0
-0.000274869 0.00103994 0
-0.000560136 0.000846782 0
0.000463506 -0.000144242 0
0.000180642 -0.000424324 0
-0.000668034 0.00029909 0
0 0 0
-0.000370598 0.000315238 0
-0.00335122 -0.00288428 0
-0.00672307 -0.00876684 0
-0.00338471 -0.00573753 0
-0.000358783 -0.00708213 0
0.00125271 -0.00804085 0
0.000872267 0.00292735 0
-0.00224832 0.0099767 0
-0.00595387 0.0098524 0
-0.00383586 0.00601749 0
-0.00213107 0.00379918 0
-0.00263634 0.00127154 0
-0.00128664 -0.00111797 0
0 0 0
-0.000522948 0.000543975 0
-0.000907635 -0.00103109 0
-0.00106006 -0.000396192 0
-0.00165912 -0.000682133 0
-0.00186469 -0.000356434 0
-0.000393392 1.1072e-05 0
0.00083919 0.000365963 0
0.000331607 0.000308828 0
4.48002e-05 0.000110195 0
1.59939e-05 -3.10277e-05 0
0 0 0
-0.000176772 0.000622623 0
0.000104409 -0.000158583 0
-0.00343798 -0.00414769 0
-0.00600564 -0.00970615 0
-0.00357491 -0.0132088 0
0.000947901 -0.00534879 0
-0.00197516 0.00447624 0
-0.00471204 0.0138169 0
-0.00388076 0.00922181 0
-0.00502979 0.00576153 0
-0.00922645 0.00470031 0
-0.00911218 0.000157412 0
-0.00361863 -0.00499611 0
0 0 0
-0.00154766 0.00184691 0
-0.00307893 -2.69892e-05 0
-0.00185835 -0.0014162 0
-0.000796391 -0.000110005 0
-0.00123657 -0.000135911 0
-0.00118997 -0.00137934 0
-0.000401026 -0.000947035 0
4.77372e-06 0.0014601 0
0 0 0
0 0 0
0 0 0
-0.000327609 6.42079e-05 0
0.00095936 0.000195973 0
0.000142422 -0.000235974 0
-0.00584667 -0.00592933 0
-0.0103356 -0.016687 0
-0.00343162 -0.00956868 0
-0.00254799 0.0111562 0
-0.00233265 0.00891913 0
-0.00142808 0.0102852 0
-0.00793271 0.0137159 0
-0.00843132 0.00312241 0
-0.00526445 -0.00244381 0
-0.00832591 -0.00621755 0
-0.00866278 -0.00248191 0
-0.00249401 -0.000615127 0
-0.00111344 0.00183894 0
-0.00377733 -0.00229972 0
-0.00323106 -0.000800145 0
-0.000726182 -0.00180681 0
-0.000264142 0.000114614 0
-0.00167412 -0.00113837 0
-0.00104445 7.71324e-05 0
0 0 0
0 0 0
0 0 0
0 0 0
0 0 0
0 0 0
0 0 0
-0.00442446 -0.0109888 0
-0.00403511 -0.0210432 0
0.0036423 0.00956179 0
-0.000989729 0.0132681 0
-0.010754 0.014991 0
-0.0103965 0.0138292 0
-0.00510836 0.000848299 0
-0.00369461 -0.00165227 0
-0.00786887 -0.00208151 0
-0.0102535 -0.00516995 0
-0.00712269 -0.00411599 0
-0.00399111 0.00126561 0
-0.00252846 -0.00124402 0
-0.00196178 -0.00219917 0
-0.000253499 -0.00441499 0
0.00187187 0.000152121 0
0.00130429 0.000900307 0
-0.000111351 -0.00134488 0
0 0 0
0 0 0
0 0 0
0 0 0
-0.00457924 0.00338321 0
-0.010676 0.000232692 0
-0.00840536 -0.00180963 0
0.00352737 -0.016533 0
0.00697683 -0.0173682 0
-0.00268784 0.00770182 0
-0.0133448 0.0293877 0
-0.0103059 0.0120866 0
0.000175606 0.00540773 0
0 0 0
-0.00169842 0.000380414 0
-0.00124846 0.000319247 0
-0.00274852 -0.00407096 0
-0.00559329 -0.00550158 0
-0.00269883 -0.00507604 0
0 0 0
0.000276408 -0.00457871 0
-0.00164927 -0.00262377 0
-0.00210948 -0.00396477 0
0.00201912 0.000988042 0
-0.0004338 0.00257787 0
-0.00429937 -4.4739e-05 0
-0.00189993 -0.00202066 0
-0.000186427 0.00127023 0
-0.00693611 0.00553099 0
-0.00817373 0.0059835 0
-0.00412345 0.00185261 0
-0.00578193 -0.0046108 0
-0.00715682 -0.0314081 0
-0.00211131 -0.0101691 0
-0.00630507 0.0211335 0
-0.00709588 0.0230514 0
0.00593368 0.00237685 0
0.0161467 -1.72974e-05 0
0.0156558 0.00402543 0
0.012044 -0.00061063 0
0.0157528 -0.000979495 0
0.0167774 -0.00102716 0
0.0102356 -0.0016045 0
0.00570987 -0.00659012 0
0.0108434 -0.00381158 0
0.00795108 0.000753127 0
0 0 0
0.00235473 -0.00669625 0
0.00476871 -0.000172281 0
0.0021291 0.0072338 0
0 0 0
0.00325633 -0.00571703 0
0.00552104 0.00273528 0
0.0033702 0.00922234 0
0.00638899 0.000468135 0
0.0118369 0.00106833 0
0.00734286 0.000412954 0
-0.00620013 -0.0222628 0
-0.0059274 -0.0223761 0
0.0234897 0.0152729 0
0.0515397 0.00363192 0
0.0541479 -0.00192301 0
0.0489143 -0.00170575 0
0.0523574 0.0038334 0
0.056015 -0.00135233 0
0.0525522 -0.00110677 0
0.051175 7.23411e-05 0
0.0532294 0.00115938 0
0.0520632 -0.00200266 0
0.043517 -0.00379091 0
0.0438445 0.00383608 0
0.0495184 -0.000256178 0
0.0440659 -0.00359415 0
0.0385201 -0.000221931 0
0.0440212 0.00369938 0
0.0497715 -0.00017242 0
0.0438242 -0.00384097 0
0.0402825 0.0015807 0
0.0486923 0.00406755 0
0.052187 -0.00199325 0
0.0479879 -0.000563759 0
0.0525308 0.00356763 0
0.0523948 -0.00372016 0
0.0243122 -0.0158051 0


