# vtk DataFile Version 4.0
SiwiRVisFile
ASCII
DATASET STRUCTURED_POINTS
DIMENSIONS 50 50 1
ORIGIN 0 0 0
SPACING 1 1 1
POINT_DATA 2500


SCALARS flags double 1
LOOKUP_TABLE default
1
1
1
1
1
1
1
1
1
1
1
1
1
1
1
1
1
1
1
1
1
1
1
1
1
1
1
1
1
1
1
1
1
1
1
1
1
1
1
1
1
1
1
1
1
1
1
1
1
1
1
1
1
1
1
1
1
1
1
1
1
1
1
1
1
1
1
1
1
1
1
1
1
1
1
1
1
1
1
1
1
1
1
1
1
1
1
1
1
1
1
1
1
1
1
1
1
1
1
1
1
1
1
1
1
1
1
1
1
1
1
1
1
1
1
1
1
1
1
1
1
1
1
1
1
1
1
1
1
1
1
1
1
1
1
1
1
1
1
1
1
1
1
1
1
1
1
1
1
1
1
1
1
1
1
1
1
1
1
1
1
1
1
1
1
1
1
1
1
1
1
1
1
1
1
1
1
1
1
1
1
1
1
1
1
1
1
1
1
1
1
1
1
1
1
1
1
1
1
1
1
1
1
1
1
1
1
1
1
1
1
1
1
1
1
1
1
1
1
1
1
1
1
1
1
1
1
1
1
1
1
1
1
1
1
1
1
1
1
1
1
1
1
1
1
1
1
1
1
1
1
1
1
1
1
1
1
1
1
1
1
1
1
1
1
1
1
1
1
1
1
1
1
1
1
1
1
1
1
1
1
1
1
1
1
1
1
1
1
1
1
1
1
1
1
1
1
1
1
1
1
1
1
1
1
1
1
1
1
1
1
1
1
1
1
1
1
1
1
1
1
1
1
1
1
1
1
1
1
1
1
1
1
1
1
1
1
1
1
1
1
1
1
1
1
1
1
1
1
1
1
1
1
1
1
1
1
1
1
1
1
1
1
1
1
1
1
1
1
1
1
1
1
1
1
1
1
1
1
1
1
1
1
1
1
1
1
1
1
1
1
1
1
1
1
1
1
1
1
1
1
1
1
1
1
1
1
1
1
1
1
1
1
1
1
1
1
1
1
1
1
1
1
1
1
1
1
1
1
1
1
1
1
1
1
1
1
1
1
1
1
1
1
1
1
1
1
1
1
1
1
1
1
1
1
1
1
1
1
1
1
1
1
1
1
1
1
1
1
1
1
1
1
1
1
1
1
1
1
1
1
1
1
1
1
1
1
1
1
1
1
1
1
1
1
1
1
1
1
1
1
1
1
1
1
1
1
1
1
1
1
1
1
1
1
1
1
1
1
1
1
1
1
1
1
1
1
1
1
1
1
1
1
1
1
1
1
1
1
1
1
1
1
1
1
1
1
1
1
1
1
1
1
1
1
1
1
1
1
1
1
1
1
1
1
1
1
1
1
1
1
1
1
1
1
1
1
1
1
1
1
1
1
1
1
1
1
1
1
1
1
1
1
1
1
1
1
1
1
1
1
1
1
1
1
1
1
1
1
1
1
1
1
1
1
1
1
1
1
1
1
1
1
1
1
1
1
1
1
1
1
1
1
1
1
1
1
1
1
1
1
1
1
1
1
1
1
1
1
1
1
1
1
1
1
1
1
1
1
1
1
1
1
1
1
1
1
1
1
1
1
1
1
1
1
1
1
1
1
1
1
1
1
1
1
1
1
1
1
1
1
1
1
1
1
1
1
1
1
1
1
1
1
1
1
1
1
1
1
1
1
1
1
1
1
1
1
1
1
1
1
1
1
1
1
1
1
1
1
1
1
1
1
1
1
1
1
1
1
1
1
1
1
1
1
1
1
1
1
1
1
1
1
1
1
1
1
1
1
1
1
1
1
1
1
1
1
1
1
1
1
1
1
1
1
1
1
1
1
1
1
1
1
1
1
1
1
1
1
1
1
1
1
1
1
1
1
1
1
1
1
1
1
1
1
1
1
1
1
1
1
1
1
1
1
1
1
1
1
1
1
1
1
1
1
1
1
1
1
1
1
1
1
1
1
1
1
1
1
1
1
1
1
1
1
1
1
1
1
1
1
1
1
1
1
1
1
1
1
1
1
1
1
1
1
1
1
1
1
1
1
1
1
1
1
1
1
1
1
1
1
1
1
1
1
1
1
1
1
1
1
1
1
1
1
1
1
1
1
1
1
1
1
1
1
1
1
1
1
1
1
1
1
1
1
1
1
1
1
1
1
1
1
1
1
1
1
1
1
1
1
1
1
1
1
1
1
1
1
1
1
1
1
1
1
1
1
1
1
1
1
1
1
1
1
1
1
1
1
1
1
1
1
1
1
1
1
1
1
1
1
1
1
1
1
1
1
1
1
1
1
1
1
1
1
1
1
1
1
1
1
1
1
1
1
1
1
1
1
1
1
1
1
1
1
1
1
1
1
1
1
1
1
1
1
1
1
1
1
1
1
1
1
1
1
1
1
1
1
1
1
1
1
1
1
1
1
1
1
1
1
1
1
1
1
1
1
1
1
1
1
1
1
1
1
1
1
1
1
1
1
1
1
1
1
1
1
1
1
1
1
1
1
1
1
1
1
1
1
1
1
1
1
1
1
1
1
1
1
1
1
1
1
1
1
1
1
1
1
1
1
1
1
1
1
1
1
1
1
1
1
1
1
1
1
1
1
1
1
1
1
1
1
1
1
1
1
1
1
1
1
1
1
1
1
1
1
1
1
1
1
1
1
1
1
1
1
1
1
1
1
1
1
1
1
1
1
1
1
1
1
1
1
1
1
1
1
1
1
1
1
1
1
1
1
1
1
1
1
1
1
1
1
1
1
1
1
1
1
1
1
1
1
1
1
1
1
1
1
1
1
1
1
1
1
1
1
1
1
1
1
1
1
1
1
1
1
1
1
1
1
1
1
1
1
1
1
1
1
1
1
1
1
1
1
1
1
1
1
1
1
1
1
1
1
1
1
1
1
1
1
1
1
1
1
1
1
1
1
1
1
1
1
1
1
1
1
1
1
1
1
1
1
1
1
1
1
1
1
1
1
1
1
1
1
1
1
1
1
1
1
1
1
1
1
1
1
1
1
1
1
1
1
1
1
1
1
1
1
1
1
1
1
1
1
1
1
1
1
1
1
1
1
1
1
1
1
1
1
1
1
1
1
1
1
1
1
1
1
1
1
1
1
1
1
1
1
1
1
1
1
1
1
1
1
1
1
1
1
1
1
1
1
1
1
1
1
1
1
1
1
1
1
1
1
1
1
1
1
1
1
1
1
1
1
1
1
1
1
1
1
1
1
1
1
1
1
1
1
1
1
1
1
1
1
1
1
1
1
1
1
1
1
1
1
1
1
1
1
1
1
1
1
1
1
1
1
1
1
1
1
1
1
1
1
1
1
1
1
1
1
1
1
1
1
1
1
1
1
1
1
1
1
1
1
1
1
1
1
1
1
1
1
1
1
1
1
1
1
1
1
1
1
1
1
1
1
1
1
1
1
1
1
1
1
1
1
1
1
1
1
1
1
1
1
1
1
1
1
1
1
1
1
1
1
1
1
1
1
1
1
1
1
1
1
1
1
1
1
1
1
1
1
1
1
1
1
1
1
1
1
1
1
1
1
1
1
1
1
1
1
1
1
1
1
1
1
1
1
1
1
1
1
1
1
1
1
1
1
1
1
1
1
1
1
1
1
1
1
1
1
1
1
1
1
1
1
1
1
1
1
1
1
1
1
1
1
1
1
1
1
1
1
1
1
1
1
1
1
1
1
1
1
1
1
1
1
1
1
1
1
1
1
1
1
1
1
1
1
1
1
1
1
1
1
1
1
1
1
1
1
1
1
1
1
1
1
1
1
1
1
1
1
1
1
1
1
1
1
1
1
1
1
1
1
1
1
1
1
1
1
1
1
1
1
1
1
1
1
1
1
1
1
1
1
1
1
1
1
1
1
1
1
1
1
1
1
1
1
1
1
1
1
1
1
1
1
1
1
1
1
1
1
1
1
1
1
1
1
1
1
1
1
1
1
1
1
1
1
1
1
1
1
1
1
1
1
1
1
1
1
1
1
1
1
1
1
1
1
1
1
1
1
1
1
1
1
1
1
1
1
1
1
1
1
1
1
1
1
1
1
1
1
1
1
1
1
1
1
1
1
1
1
1
1
1
1
1
1
1
1
1
1
1
1
1
1
1
1
1
1
1
1
1
1
1
1
1
1
1
1
1
1
1
1
1
1
1
1
1
1
1
1
1
1
1
1
1
1
1
1
1
1
1
1
1
1
1
1
1
1
1
1
1
1
1
1
1
1
1
1
1
1
1
1
1
1
1
1
1
1
1
1
1
1
1
1
1
1
1
1
1
1
1
1
1
1
1
1
1
1
1
1
1
1
1
1
1
1
1
1
1
1
1
1
1
1
1
1
1
1
1
1
1
1
1
1
1
1
1
1
1
1
1
1
1
1
1
1
1
1
1
1
1
1
1
1
1
1
1
1
1
1
1
1
1
1
1
1
1
1
1
1
1
1
1
1
1
1
1
1
1
1
1
1
1
1
1
1
1
1
1
1
1
1
1
1
1
1
1
1
1
1
1
1
1
1
1
1
1
1
1
1
1
1
1
1
1
1
1
1
1
1
1
1
1
1
1
1
1
1
1
1
1
1
1
1
1
1
1
1
1
1
1
1
1
1
1
1
1
1
1
1
1
1
1
1
1
1
1
1
1
1
1
1
1
1
1
1
1
1
1
1
1
1
1
1
1
1
1
1
1
1
1
1
1
1
1
1
1
1
1
1
1
1
1
1
1
1
1
1
1
1
1
1
1
1
1
1
1
1
1
1
1
1
1
1
1
1
1
1
1
1
1
1
1
1
1
1
1
1
1
1
1
1
1
1
1
1
1
1
1
1
1
1
1
1
1
1
1
1
1
1
1
1
1
1
1
1
1
1
1
1
1
1
1
1
1
1
1
1
1
1
1
1
1
1
1
1
1
1
1
1
1
1
1
1
1
1
1
1
1
1
1
1
1
1
1
1
1
1
1
1
1
1
1
1
1
1
1
1
1
1
1
1
1
1
1
1
1
1
1
1
1
1
1
1
1
1
1
1
1
1
1
1
1
1
1
1
1
1
1
1
1
1
1
1
1
1
1
1
1
1
1
1
1
1
1
1
1
1
1
1
1
1
1
1
1
1
1
1
1
1
1
1
1
1
1
1
1
1
1
1
1
1
1
1
1
1
1
1
1
1
1
1
1
1
1
1
1
1
1
1
1
1
1
1
1
1
1
1
1
1
1
1
1
1
1
1
1
1
1
1
1
1
1
1
1
1
1
1
1
1
1
1
1
1
1
1
1
1
1
1
1
1
1
1
1
1
1
1
1
1
1
1
1
1
1
1
1
1
1
1
1
1
1
1
1
1
1
1
1
1
1
1
1
1
1
1
1
1
1
1
1
1
1
1
1
1
1
1
1
1
1
1
1
1
1
1
1
1
1
1
1
1
1
1
1
1
1
1
1
1
1
1
1
1
1
1
1
1
1
1
1
1
1
1
1
1
1
1
1
1
1
1
1
1
1
1
1
1
1
1
1
1
1
1
1
1
1
1
1
1
1
1
1
1
1
1
1
1
1
1
1
1
1
1
1
1
1
1
1
1
1
1
1
1
1
1
1
1
1
1
1
1
1
1
1
1
1
1
1
1
1
1
1
1
1
1
1
1
1
1
1
1
1
1
1
1
1
1
1
1
1
1
1
1
1
1
1
1
1
1
1
1
1
1
1
1
1
1
1
1
1
1
1
1
1
1
1

SCALARS density double 1
LOOKUP_TABLE default
0.996196
0.996306
0.996389
0.996494
0.996578
0.996629
0.996686
0.996745
0.996781
0.996833
0.996852
0.996841
0.996867
0.996883
0.996854
0.996837
0.996905
0.996961
0.99702
0.99721
0.997487
0.997774
0.998136
0.998647
0.999141
0.999601
1.0001
1.0006
1.00094
1.00123
1.00152
1.00171
1.0018
1.0019
1.00201
1.00202
1.00204
1.0021
1.00215
1.00215
1.0022
1.00226
1.00227
1.00232
1.00235
1.00239
1.00241
1.00248
1.0025
1.00254
0.996378
0.996439
0.996475
0.996513
0.996585
0.996556
0.996674
0.996706
0.996704
0.996765
0.996847
0.996857
0.996889
0.996982
0.997016
0.99706
0.997167
0.997284
0.997397
0.997581
0.997838
0.99809
0.998393
0.998774
0.999167
0.999539
0.999942
1.00034
1.00068
1.00097
1.00126
1.00149
1.00164
1.00178
1.00191
1.00198
1.00203
1.00211
1.00215
1.00217
1.00223
1.00228
1.00228
1.0023
1.00238
1.00237
1.0024
1.00242
1.00244
1.00246
0.996605
0.996677
0.996685
0.996666
0.996636
0.996699
0.99667
0.996703
0.996761
0.996771
0.996827
0.996919
0.997018
0.997076
0.997239
0.997413
0.997529
0.997706
0.997962
0.998159
0.998311
0.99858
0.998823
0.998992
0.999196
0.999511
0.999741
0.999971
1.00029
1.00064
1.00086
1.00112
1.00141
1.0016
1.00172
1.00188
1.00202
1.00204
1.00212
1.00219
1.00222
1.00221
1.00227
1.0023
1.00227
1.00232
1.00231
1.00231
1.0023
1.00237
0.997059
0.997029
0.996964
0.996939
0.996917
0.996961
0.996884
0.996887
0.996937
0.99696
0.996967
0.997061
0.997182
0.997284
0.997456
0.997681
0.997919
0.998159
0.99844
0.998698
0.99891
0.999087
0.999221
0.999304
0.999366
0.99944
0.999546
0.999694
0.99991
1.00017
1.00047
1.00077
1.00108
1.00132
1.00155
1.00173
1.00186
1.00194
1.00202
1.00208
1.00209
1.00211
1.00215
1.00216
1.00212
1.00215
1.00216
1.00215
1.00213
1.00213
0.997486
0.997382
0.997289
0.997372
0.997274
0.997255
0.997286
0.997267
0.997246
0.997271
0.997339
0.997333
0.997422
0.99759
0.997731
0.997918
0.998224
0.998539
0.998772
0.999066
0.999357
0.999469
0.999518
0.999588
0.999575
0.999457
0.999463
0.999565
0.999651
0.99981
1.00013
1.00045
1.00069
1.00101
1.0013
1.00148
1.0016
1.00176
1.00184
1.00183
1.00191
1.00194
1.00194
1.00192
1.00198
1.00197
1.00191
1.00198
1.00194
1.00189
0.997757
0.997673
0.997622
0.997661
0.997578
0.997569
0.997601
0.997626
0.997607
0.997633
0.997702
0.997735
0.997803
0.997921
0.998095
0.998266
0.998494
0.998764
0.999036
0.999271
0.999462
0.999637
0.999714
0.999723
0.99967
0.999654
0.999573
0.999545
0.999585
0.999716
0.999872
1.0001
1.00039
1.00067
1.00092
1.00113
1.00134
1.00147
1.00157
1.00164
1.00171
1.00174
1.00175
1.00178
1.0018
1.0018
1.00176
1.00178
1.00176
1.00172
0.997863
0.997864
0.997785
0.997727
0.997749
0.997791
0.99775
0.997779
0.997884
0.997913
0.997947
0.998105
0.998216
0.99831
0.998479
0.998709
0.998841
0.998989
0.999219
0.999353
0.999425
0.999562
0.999707
0.999706
0.999751
0.999814
0.999799
0.999694
0.999717
0.999739
0.999738
0.999835
1.00008
1.00028
1.00048
1.00078
1.00102
1.00117
1.00131
1.00149
1.00153
1.00156
1.00165
1.00167
1.00164
1.00167
1.00171
1.00166
1.00161
1.00163
0.997902
0.997884
0.997837
0.997824
0.997806
0.997856
0.997845
0.997879
0.997953
0.998041
0.998161
0.998281
0.998503
0.998699
0.99888
0.999054
0.999231
0.999318
0.999328
0.999374
0.999414
0.999429
0.999482
0.999654
0.999795
0.99987
0.999947
1
0.999901
0.99979
0.999738
0.999741
0.999752
0.999909
1.00017
1.00041
1.00066
1.00092
1.00116
1.00128
1.00141
1.00149
1.00154
1.00156
1.00157
1.0016
1.00158
1.00158
1.00157
1.00155
0.997904
0.997863
0.997875
0.997945
0.997903
0.997886
0.99796
0.997999
0.997981
0.998121
0.998301
0.998441
0.998648
0.998956
0.999186
0.999324
0.999492
0.999573
0.999501
0.999418
0.999413
0.999368
0.999368
0.99955
0.999738
0.999876
1.00002
1.00013
1.00005
0.99991
0.999827
0.999694
0.999615
0.999696
0.999903
1.0001
1.00037
1.00071
1.00094
1.00111
1.00129
1.00143
1.00143
1.00146
1.00154
1.00152
1.00149
1.00153
1.00155
1.0015
0.997864
0.997936
0.997925
0.997979
0.998001
0.998015
0.998025
0.99808
0.998182
0.998241
0.998407
0.998636
0.998862
0.999061
0.999328
0.999541
0.999584
0.999622
0.999643
0.999552
0.999427
0.999424
0.999488
0.999487
0.999623
0.999844
0.99999
1.00001
1.00009
1.00007
0.999891
0.999746
0.999699
0.999675
0.999677
0.9999
1.00018
1.00041
1.00068
1.00096
1.00116
1.00124
1.00138
1.00144
1.00145
1.00147
1.0015
1.00151
1.00148
1.00152
0.997863
0.998002
0.997986
0.997953
0.998031
0.998096
0.998084
0.998164
0.998345
0.998468
0.9986
0.998855
0.999102
0.99923
0.9994
0.999546
0.999595
0.999565
0.999606
0.999626
0.999568
0.999578
0.999609
0.999615
0.999614
0.999722
0.999788
0.999886
0.999997
1.00006
1.00001
0.999946
0.999872
0.999731
0.999695
0.999777
0.999949
1.00013
1.00044
1.00074
1.00095
1.00113
1.00131
1.00141
1.00142
1.00147
1.00153
1.00149
1.00147
1.00154
0.997967
0.997977
0.997995
0.998044
0.99803
0.99808
0.998224
0.99831
0.998453
0.998688
0.998941
0.999104
0.999286
0.999498
0.999498
0.999474
0.999518
0.999545
0.999487
0.999568
0.99974
0.999753
0.999725
0.999765
0.999736
0.999582
0.999619
0.999766
0.999849
0.999934
1.00013
1.00015
0.999993
0.999897
0.99983
0.999734
0.999716
0.999963
1.0002
1.00042
1.00075
1.00102
1.00119
1.00129
1.00144
1.00148
1.00147
1.00152
1.00154
1.00151
0.998069
0.998011
0.998041
0.998117
0.998102
0.99814
0.99829
0.998473
0.998605
0.998854
0.999168
0.999354
0.999479
0.999586
0.999613
0.999503
0.999437
0.999456
0.999484
0.999559
0.999709
0.999847
0.999873
0.99984
0.999761
0.999656
0.999591
0.999618
0.99972
0.999919
1.00009
1.00018
1.00017
1.0001
0.999936
0.99976
0.999741
0.999809
0.999973
1.00021
1.00056
1.00084
1.00104
1.00125
1.0014
1.00145
1.00147
1.00152
1.00155
1.00151
0.998076
0.998139
0.99809
0.998055
0.998176
0.998274
0.998319
0.998514
0.998825
0.999016
0.999212
0.999508
0.999615
0.999564
0.999571
0.999583
0.999447
0.999387
0.999547
0.999617
0.999638
0.999786
0.999923
0.999843
0.999758
0.999789
0.999692
0.999587
0.999715
0.999889
0.999966
1.00009
1.00029
1.00022
1.00003
0.999958
0.999865
0.99975
0.999824
1.00012
1.00035
1.0006
1.00097
1.0012
1.0013
1.00141
1.00156
1.00153
1.0015
1.00158
0.998105
0.998128
0.998087
0.998095
0.998174
0.998339
0.998459
0.998672
0.998973
0.999226
0.999388
0.999497
0.99961
0.99958
0.999494
0.999494
0.999523
0.999541
0.999543
0.999649
0.999709
0.999706
0.999739
0.999806
0.999843
0.99981
0.999812
0.999803
0.999767
0.999762
0.999882
1.00007
1.00015
1.00023
1.00025
1.00015
0.99995
0.999829
0.999855
0.999914
1.00012
1.00042
1.00076
1.00102
1.00123
1.00141
1.00151
1.00155
1.00156
1.00158
0.99814
0.997987
0.998052
0.998238
0.998228
0.998347
0.998713
0.998978
0.999106
0.999397
0.999604
0.99954
0.999463
0.999531
0.999468
0.999361
0.99952
0.999655
0.999631
0.999642
0.99974
0.999661
0.999578
0.999738
0.999848
0.999855
0.999908
1
0.999867
0.999757
0.999873
0.999956
1.00003
1.00023
1.0004
1.00026
1.00011
1.00006
0.999882
0.999778
0.99997
1.00028
1.00047
1.00078
1.00118
1.00133
1.00139
1.00156
1.00166
1.00156
0.998037
0.998025
0.998091
0.99822
0.998354
0.998562
0.998846
0.999145
0.999379
0.999486
0.9996
0.999589
0.999464
0.999359
0.999388
0.999452
0.99946
0.999603
0.999735
0.999711
0.999617
0.999631
0.999664
0.999627
0.999738
0.999936
1.00003
0.99997
0.999981
0.999957
0.99984
0.999836
1.00003
1.00023
1.00027
1.00038
1.00036
1.00016
0.999953
0.999885
0.999936
1.00003
1.00033
1.00066
1.00096
1.0012
1.00141
1.00151
1.0016
1.00163
0.997864
0.998097
0.998122
0.998107
0.998444
0.998785
0.998913
0.999164
0.999516
0.999585
0.999468
0.999523
0.999506
0.999333
0.999344
0.999513
0.999555
0.99954
0.99968
0.999718
0.9996
0.999619
0.999694
0.999666
0.999715
0.999913
0.999993
0.999992
1.00005
1.00006
0.999906
0.999895
1.00002
1.00007
1.00019
1.00041
1.00044
1.00025
1.00014
1.00007
0.99989
0.99993
1.00026
1.00054
1.00075
1.0011
1.00145
1.00147
1.00153
1.00172
0.997929
0.997947
0.998089
0.998307
0.998528
0.998819
0.999167
0.999358
0.99948
0.999582
0.999561
0.999395
0.999378
0.999482
0.999434
0.999459
0.99962
0.999657
0.999535
0.999562
0.999697
0.999642
0.999621
0.999781
0.999846
0.999769
0.999867
1.00008
1.00008
1.00001
1.00011
1.00008
0.999917
0.999986
1.00022
1.00033
1.00034
1.00047
1.00038
1.00009
0.999976
0.999997
1.00006
1.00026
1.00067
1.00098
1.00121
1.00147
1.00164
1.00161
0.997998
0.997896
0.998156
0.998558
0.998733
0.998942
0.999397
0.999612
0.999495
0.999494
0.999535
0.999354
0.999261
0.999431
0.999567
0.999521
0.99957
0.999646
0.99954
0.999506
0.999613
0.999696
0.999724
0.999798
0.999845
0.999791
0.999847
0.999956
1.00002
1.00011
1.00018
1.00012
0.999997
1.00006
1.00013
1.00018
1.0004
1.00058
1.00048
1.00026
1.00017
1.00005
0.999904
1.00009
1.00052
1.00077
1.00101
1.00138
1.00164
1.00157
0.997913
0.99818
0.998357
0.998508
0.998949
0.999312
0.999403
0.999517
0.999631
0.999418
0.999217
0.99931
0.999354
0.999312
0.999477
0.999686
0.999579
0.999473
0.999627
0.999598
0.999515
0.999686
0.999883
0.999807
0.999734
0.999926
0.999867
0.999783
0.999992
1.00019
1.00014
1.0001
1.00023
1.00011
0.999983
1.00022
1.00045
1.00047
1.00055
1.00062
1.00035
1.00004
1.00009
1.00014
1.0002
1.00058
1.00105
1.00121
1.00139
1.00165
0.998049
0.998385
0.998545
0.99868
0.999138
0.999512
0.999496
0.999476
0.999566
0.999445
0.999212
0.999255
0.999472
0.999464
0.999456
0.999609
0.999626
0.999538
0.999514
0.999647
0.999673
0.999691
0.999787
0.999834
0.999865
0.999824
0.999846
0.999878
0.999975
1.00003
1.00011
1.00027
1.00022
1.00012
1.00012
1.00022
1.00026
1.00036
1.00062
1.00065
1.00042
1.00024
1.00018
1.00008
1.0001
1.00044
1.00086
1.00106
1.00126
1.00153
0.998431
0.998281
0.998637
0.999168
0.999274
0.999347
0.999685
0.999629
0.999303
0.999315
0.999474
0.999331
0.999327
0.99961
0.999589
0.999379
0.999503
0.99961
0.999502
0.999548
0.999808
0.999766
0.999648
0.999844
0.999919
0.999793
0.999827
1.00003
0.999925
0.999898
1.00019
1.0003
1.0002
1.00027
1.00036
1.00015
1.00014
1.00049
1.00057
1.00049
1.00062
1.00056
1.00015
1.00001
1.00029
1.00034
1.00047
1.001
1.00136
1.00124
0.998514
0.998497
0.998869
0.999267
0.999429
0.999481
0.99957
0.99954
0.99932
0.999198
0.999357
0.999459
0.999415
0.999456
0.999551
0.999495
0.999349
0.999497
0.999648
0.999686
0.999665
0.999794
0.999846
0.999738
0.99978
0.999921
0.999974
0.999864
0.999921
1.00006
1.00006
1.00012
1.0003
1.00044
1.00028
1.00023
1.00033
1.00038
1.00043
1.00064
1.00078
1.0006
1.00036
1.00023
1.00018
1.00022
1.00046
1.00079
1.00114
1.00123
0.998436
0.999023
0.999142
0.99909
0.999562
0.999839
0.999395
0.999215
0.999471
0.999327
0.999102
0.999467
0.99969
0.999424
0.999388
0.99963
0.999531
0.999382
0.999693
0.99983
0.999668
0.999718
0.99989
0.999758
0.99973
0.999972
0.999982
0.999868
1.00001
1.00009
0.99993
1.00006
1.00038
1.0003
1.00022
1.00043
1.00038
1.00016
1.00041
1.00081
1.00068
1.00057
1.00074
1.00047
0.999987
1.00017
1.00059
1.00056
1.00071
1.00126
0.998886
0.999002
0.99923
0.999469
0.999606
0.999587
0.999475
0.99927
0.999198
0.999316
0.999394
0.999363
0.999508
0.999587
0.999417
0.999384
0.999573
0.999634
0.99954
0.999657
0.99983
0.999722
0.999628
0.99984
0.999913
0.999823
0.999885
1.00012
1.00007
0.999916
1.00008
1.00022
1.00015
1.00026
1.0005
1.00046
1.00027
1.00036
1.00051
1.00051
1.0007
1.0009
1.00075
1.00049
1.00036
1.00022
1.00024
1.00052
1.00078
1.00081
0.99926
0.998901
0.999306
0.999907
0.999569
0.999185
0.999488
0.999487
0.999002
0.99919
0.999676
0.999496
0.999212
0.999511
0.999581
0.999307
0.99942
0.999781
0.999676
0.999561
0.999758
0.999804
0.999708
0.999786
0.999935
0.999836
0.999951
1.00006
0.999983
1
1.00017
1.00011
1.00003
1.00039
1.00055
1.00034
1.0004
1.00063
1.00039
1.00031
1.00081
1.00104
1.00065
1.0006
1.00075
1.0003
0.99997
1.00045
1.0008
1.00052
0.999122
0.999483
0.999638
0.999458
0.999547
0.999517
0.999172
0.99916
0.999411
0.99935
0.999341
0.999555
0.999492
0.999215
0.999385
0.999623
0.999499
0.999508
0.999842
0.999778
0.999563
0.999733
0.999943
0.999797
0.99972
1.00005
1
0.999835
1.00002
1.00022
1.00003
0.999952
1.00029
1.00034
1.00023
1.0005
1.0007
1.00042
1.00038
1.00066
1.00067
1.00066
1.00101
1.00096
1.0005
1.00041
1.00046
1.00017
1.00027
1.00067
0.999349
1
0.999807
0.999249
0.999527
0.999668
0.999086
0.99896
0.999541
0.999579
0.999171
0.999346
0.999622
0.99932
0.999198
0.999604
0.999689
0.999518
0.999571
0.999803
0.999672
0.999651
0.999815
0.999839
0.999891
0.999904
0.999951
0.999957
1.00012
1.00013
1.00003
1.00024
1.0003
1.00014
1.00026
1.00066
1.0006
1.00038
1.00063
1.00077
1.00048
1.00062
1.00115
1.00104
1.00054
1.00053
1.00062
1.00012
0.999934
1.00041
1.00016
0.999583
0.99962
0.999957
0.999396
0.998974
0.999364
0.999429
0.999054
0.999336
0.999649
0.999253
0.99912
0.999591
0.999573
0.999297
0.999617
0.999816
0.999523
0.999452
0.999878
0.999799
0.999595
0.999908
1.00002
0.999817
0.999847
1.00018
1.00004
0.999936
1.00034
1.00033
1.00003
1.00021
1.00055
1.00035
1.00036
1.00086
1.00075
1.00035
1.00071
1.00105
1.00073
1.00085
1.00125
1.00073
1.00008
1.00038
1.00039
0.99974
1.00037
0.999743
0.999862
0.999989
0.999405
0.998956
0.999328
0.999534
0.999183
0.999186
0.999557
0.999398
0.999094
0.999382
0.999717
0.999517
0.999418
0.999698
0.999678
0.999546
0.999622
0.999859
0.99986
0.999807
0.999879
0.999923
1.00001
0.999953
0.999959
1.00019
1.00028
1.00016
1.00016
1.00044
1.00036
1.00022
1.0006
1.00086
1.00061
1.00053
1.00085
1.00087
1.00071
1.00099
1.00122
1.0008
1.00029
1.0002
1.00021
0.999769
0.999982
1.00081
1.00023
0.999133
0.999423
0.999778
0.998955
0.998934
0.999748
0.999473
0.998826
0.999303
0.999637
0.999176
0.999218
0.999852
0.999676
0.999315
0.999667
0.999789
0.999538
0.999626
0.999982
0.999845
0.99974
1.00005
1.00002
0.999866
1.00015
1.0003
1.00007
1.00016
1.00054
1.00026
1.00006
1.00066
1.00078
1.00036
1.0007
1.0012
1.00061
1.0004
1.00127
1.00132
1.00058
1.00091
1.00112
0.999981
0.999408
1.0002
1.00075
1.00069
1.00007
0.999514
0.99941
0.999417
0.999219
0.999158
0.999368
0.999463
0.999159
0.999069
0.999439
0.999477
0.999338
0.999508
0.999795
0.999641
0.999455
0.99968
0.999788
0.999656
0.999638
0.999913
1.00001
0.999842
0.99991
1.00018
1.0002
1.00004
1.00015
1.00042
1.00028
1.00014
1.00045
1.00059
1.00043
1.00054
1.00094
1.00087
1.00066
1.00086
1.001
1.00103
1.00109
1.00101
1.00074
1.00031
0.99977
0.999464
1.00151
0.999898
0.999868
1.00056
0.999349
0.998543
0.999647
0.999865
0.998742
0.998938
0.999791
0.99924
0.998784
0.99958
0.999784
0.999226
0.999405
0.999933
0.999616
0.999391
0.999794
0.999798
0.999583
0.999826
1.00003
0.999836
0.999978
1.00024
1.00004
1.00003
1.00044
1.00031
1.00001
1.0005
1.00073
1.00019
1.00035
1.00115
1.0008
1.00033
1.00117
1.0014
1.00043
1.00073
1.00182
1.0011
1.00002
1.00059
1.00051
0.999003
1.00081
1.00079
1.00041
0.999636
0.999431
0.999455
0.999165
0.99924
0.999332
0.999055
0.999003
0.999399
0.999368
0.99916
0.999476
0.99964
0.999429
0.999429
0.999795
0.999748
0.999526
0.999709
0.9999
0.999787
0.999753
1.00006
1.00012
0.999945
1.00008
1.00033
1.00019
1.0001
1.00047
1.00054
1.0003
1.00045
1.0008
1.00062
1.00061
1.0011
1.00107
1.0008
1.00108
1.00124
1.0009
1.00112
1.00113
1.00015
0.999717
0.999943
1.00053
1.00181
1.00061
0.99884
0.999602
1.00028
0.998899
0.998507
0.999747
0.99947
0.998467
0.999136
0.999964
0.999288
0.999014
0.999766
0.999707
0.999252
0.999558
0.99996
0.999656
0.999561
0.999855
0.999823
0.999817
1.00002
1.00005
0.999991
1.00026
1.00025
0.99997
1.00034
1.00068
1.00026
1.00018
1.00092
1.00075
1.00011
1.00087
1.00156
1.0007
1.00051
1.00168
1.0014
1.00034
1.00107
1.00174
1.00019
0.999134
1.00016
1.00201
1.00053
1.00004
1.00054
0.999525
0.998864
0.999555
0.999469
0.998555
0.998962
0.999533
0.999063
0.998973
0.999677
0.999606
0.999137
0.999452
0.999726
0.999464
0.999452
0.999883
0.999793
0.999543
0.999836
1.00001
0.999854
0.999964
1.0003
1.00014
1.00001
1.00041
1.00048
1.0002
1.00043
1.00084
1.00046
1.00033
1.00103
1.00102
1.00053
1.00113
1.00167
1.00077
1.0008
1.00178
1.00116
1.0002
1.00097
1.00057
0.998846
1.00203
1.00003
1.00032
1.00103
0.999533
0.998454
0.999575
0.999786
0.998429
0.998539
0.999728
0.999324
0.998733
0.999461
0.999935
0.999277
0.999164
0.999737
0.999649
0.999446
0.999727
0.999942
0.999777
0.999744
0.999889
0.999925
1.00012
1.00014
0.999973
1.00019
1.00048
1.00026
1.00014
1.00075
1.00077
1.00016
1.00058
1.00129
1.00074
1.00038
1.00151
1.0017
1.00057
1.00091
1.00195
1.00118
1.00017
1.00073
1.00094
0.999362
1.00041
1.00233
1.00114
0.998803
0.999663
1.00046
0.998531
0.998229
0.999715
0.999235
0.998229
0.999281
0.999932
0.999084
0.999043
0.999872
0.999591
0.99906
0.999564
0.999826
0.999536
0.999657
1.00002
0.999791
0.999654
1.00012
1.00013
0.999897
1.00022
1.00041
1.0001
1.00026
1.00083
1.00045
1.00013
1.00095
1.00107
1.00022
1.00074
1.00182
1.00092
1.00044
1.00204
1.00189
1.00008
1.00119
1.00234
1.00006
0.999059
1.00117
1.00151
1.00216
1.00074
0.999362
0.999792
1
0.998776
0.998307
0.999179
0.999326
0.998602
0.998965
0.999735
0.999387
0.999123
0.999503
0.999646
0.999309
0.999349
0.99969
0.999692
0.999714
0.999833
0.999846
0.999881
0.999951
1.00001
1.0001
1.00029
1.00025
1.00014
1.00051
1.00066
1.00033
1.0005
1.00098
1.00075
1.00038
1.0011
1.00148
1.00081
1.00101
1.00185
1.00152
1.00079
1.00115
1.00156
1.00083
0.999807
0.99995
1.00345
0.999628
1.00002
1.00225
0.9995
0.997452
0.999766
0.999894
0.997586
0.99825
1.00015
0.9992
0.998387
0.999726
0.999992
0.998962
0.999132
0.999908
0.999559
0.999218
0.9998
0.999937
0.999644
0.999859
1.00003
0.999847
0.999991
1.00029
1.00006
1.00009
1.00063
1.00039
1.00002
1.00077
1.00112
1.00018
1.00036
1.00172
1.00105
0.999973
1.00173
1.00255
1.00037
1.0006
1.00313
1.0014
0.999126
1.00173
1.0022
0.998541
1.00139
1.00114
1.00118
1.00034
0.99955
0.999049
0.998743
0.998827
0.998624
0.998651
0.999045
0.999364
0.999249
0.999226
0.99949
0.999403
0.999288
0.999392
0.999552
0.999573
0.999555
0.999723
0.999857
0.999868
0.999895
0.999978
1.00008
1.00006
1.00016
1.00038
1.00038
1.00033
1.00051
1.00073
1.00065
1.00057
1.00094
1.00101
1.00084
1.00109
1.00144
1.00143
1.00138
1.00167
1.00141
1.00139
1.00145
1.00051
1.00071
1.0013
1.0001
1.0044
1.00179
0.99743
0.999789
1.00133
0.99766
0.996958
1.00001
0.999458
0.997639
0.999058
1.00041
0.999115
0.998657
0.999825
0.999669
0.998906
0.99942
0.999937
0.999552
0.999509
0.999975
0.999928
0.999824
1.00012
1.00001
0.999909
1.00041
1.00045
0.999979
1.00042
1.00106
1.00035
1.00013
1.00141
1.00121
0.999875
1.00107
1.00256
1.00075
1.00002
1.00307
1.00271
0.999343
1.00126
1.00393
1.00016
0.998377
1.00252
1.00366
1.00073
1.00013
1.00129
0.999401
0.998005
0.998875
0.998942
0.997942
0.998606
0.999428
0.999171
0.998997
0.99951
0.999598
0.9991
0.999213
0.999538
0.999476
0.99945
0.999677
0.999795
0.999743
0.999904
1.00005
0.999933
0.999971
1.00017
1.00021
1.00027
1.00044
1.00049
1.00041
1.00066
1.00091
1.00062
1.0007
1.00125
1.0012
1.00084
1.00147
1.00212
1.00117
1.00134
1.00265
1.00162
1.00005
1.00235
1.00225
0.998783
1.00404
0.998387
1.00015
1.00329
0.998875
0.996075
0.999451
0.999852
0.997129
0.99797
1.0003
0.999364
0.998406
0.999688
0.999946
0.998812
0.998914
0.999748
0.999498
0.999227
0.999756
0.999879
0.999664
0.999936
1.00009
0.999858
1.00001
1.0003
1.00007
1.00018
1.00076
1.00049
1.00009
1.00093
1.00127
1.0002
1.0005
1.00203
1.00116
0.999927
1.00211
1.00306
1.00024
1.0006
1.00429
1.00212
0.998616
1.00231
1.00406
0.999468
0.998946
1.00441
1.00216
0.996885
0.999214
1.00061
0.997273
0.996807
0.999499
0.999418
0.998007
0.99913
1.00026
0.999224
0.998746
0.99945
0.999502
0.998996
0.999366
0.999852
0.999621
0.999592
0.999937
0.999974
0.99991
1.00004
1.00004
1.00002
1.00035
1.00041
1.00016
1.00054
1.00094
1.00043
1.0004
1.0013
1.00119
1.00019
1.0012
1.00244
1.00096
1.00051
1.00311
1.00287
0.99976
1.00178
1.00492
1
0.998802
1.00545
1.00125
1.00519
1.00074
0.996391
0.99935
1.00021
0.99681
0.996753
0.999489
0.999274
0.998179
0.999429
1.00019
0.999116
0.998816
0.999497
0.999295
0.998875
0.999416
0.999789
0.999575
0.999714
1.00007
0.99991
0.999823
1.0001
1.00004
0.99994
1.00039
1.00053
1.00017
1.00047
1.00106
1.00053
1.00028
1.00132
1.00137
1.00023
1.00107
1.00255
1.00121
1.00039
1.00309
1.00321
0.999928
1.00132
1.00503
1.00151
0.99898
1.00237
1.00633
0.994068
0.997991
1.00437
0.998242
0.994515
0.998804
0.999934
0.996871
0.997927
1.00069
0.999753
0.998403
0.999509
0.999902
0.998638
0.998683
0.999662
0.999549
0.999304
0.999803
1.00003
0.999762
0.999896
1.00004
0.999885
1.00008
1.00031
1.00006
1.00025
1.00082
1.00053
1.00012
1.00102
1.00132
1.00011
1.00059
1.00224
1.00115
0.999857
1.00253
1.00353
0.999822
1.00076
1.00567
1.00224
0.996987
1.00492
1.00814
0.995753
0.99956
0.998572
1.00022
1.00055
0.997063
0.996983
0.998302
0.997942
0.997688
0.999196
0.999938
0.999378
0.999318
0.999667
0.999136
0.998646
0.999029
0.999373
0.999271
0.999558
0.999966
0.99991
0.999739
1
1.00004
0.999823
0.999969
1.00035
1.00022
1.00021
1.00065
1.00077
1.00036
1.00065
1.00116
1.00076
1.0005
1.00152
1.00164
1.00085
1.00139
1.00291
1.00169
1.001
1.0029
1.0035
1.00013
1.00205
1.00535
1.00557
0.998385
1.01267
1.00101
0.992688
0.99901
1.00088
0.995622
0.995532
1.00037
0.99971
0.998096
0.999828
1.00097
0.998993
0.998336
0.99937
0.999081
0.998491
0.999353
1.00008
0.999757
0.999851
1.00018
0.999858
0.999735
1.00011
0.999948
0.999858
1.00054
1.00061
0.999978
1.00064
1.00136
1.00028
0.999967
1.00181
1.00147
0.999489
1.00132
1.00365
1.00048
0.999502
1.00494
1.00403
0.997024
1.0026
1.00957
0.998078
0.994034
1.02059

VECTORS velocity double
1.69006e-05 -3.15564e-06 0
2.68946e-05 3.46323e-05 0
-3.75719e-05 -3.28217e-06 0
-4.15378e-05 5.56902e-06 0
-5.14731e-05 6.97649e-06 0
-8.82952e-05 2.70806e-05 0
-0.000112217 4.83324e-06 0
-0.000124753 6.57252e-06 0
-0.000136668 -1.75166e-06 0
-0.000164415 4.4231e-06 0
-0.000184822 -1.78228e-05 0
-0.000191297 -1.68411e-05 0
-0.00021467 -1.96688e-05 0
-0.000235056 -2.00289e-05 0
-0.000252614 -2.48925e-05 0
-0.000274667 -1.04611e-05 0
-0.000306548 -4.49557e-06 0
-0.000335538 8.22674e-06 0
-0.000367628 2.00172e-05 0
-0.000404869 4.05419e-05 0
-0.000440324 4.73387e-05 0
-0.000471783 6.0902e-05 0
-0.000495773 6.58538e-05 0
-0.000510419 7.01989e-05 0
-0.000510268 6.32731e-05 0
-0.000495931 6.10773e-05 0
-0.00046959 4.76626e-05 0
-0.000432387 3.8915e-05 0
-0.000391509 2.52844e-05 0
-0.000348342 1.79358e-05 0
-0.000307792 2.47158e-06 0
-0.000271357 3.30331e-07 0
-0.000242183 -8.86029e-06 0
-0.000217999 -1.33721e-05 0
-0.00019349 -2.09694e-05 0
-0.000178451 -1.72599e-05 0
-0.000166204 -2.7523e-05 0
-0.000151992 -3.04898e-05 0
-0.000134985 -3.3561e-05 0
-0.000131301 -3.10427e-05 0
-0.000115964 -4.80746e-05 0
-9.40843e-05 -4.00417e-05 0
-8.48737e-05 -4.51833e-05 0
-7.53399e-05 -3.90244e-05 0
-5.61331e-05 -5.87396e-05 0
-3.08434e-05 -3.74688e-05 0
-2.09439e-05 -4.53451e-05 0
-1.73794e-05 -2.85471e-05 0
2.79572e-05 -6.50821e-05 0
2.65345e-05 -1.86156e-05 0
3.68264e-05 -1.80341e-05 0
8.83361e-05 0.000103919 0
-6.85387e-06 9.06538e-05 0
-6.70248e-05 4.85645e-05 0
-9.96708e-05 7.29013e-05 0
-0.00016574 0.000110289 0
-0.000200332 6.05065e-05 0
-0.000235503 6.81155e-05 0
-0.000286664 6.48817e-05 0
-0.000325665 5.92397e-05 0
-0.000352994 2.30099e-05 0
-0.000391702 2.42785e-05 0
-0.000431574 2.59581e-05 0
-0.000466844 1.04112e-05 0
-0.000501785 8.43934e-06 0
-0.000545981 3.13299e-05 0
-0.000591292 4.30977e-05 0
-0.000639689 6.28154e-05 0
-0.000693333 8.65183e-05 0
-0.000749024 0.000124241 0
-0.000804029 0.000136312 0
-0.00085084 0.00016264 0
-0.000890058 0.000169215 0
-0.000909578 0.00017802 0
-0.000907936 0.000160114 0
-0.000887346 0.000154301 0
-0.000845984 0.000117938 0
-0.00078765 9.52199e-05 0
-0.000719375 5.72631e-05 0
-0.000652632 3.00856e-05 0
-0.000583148 -1.20207e-05 0
-0.000520944 -2.76529e-05 0
-0.000469674 -5.2886e-05 0
-0.000425387 -7.47822e-05 0
-0.000387296 -9.11897e-05 0
-0.000353033 -9.39699e-05 0
-0.00032849 -0.000107576 0
-0.000301652 -0.000128024 0
-0.000273492 -0.000125709 0
-0.000245181 -0.000124701 0
-0.000224725 -0.000149161 0
-0.000197879 -0.000148035 0
-0.000159257 -0.000148593 0
-0.000133671 -0.00013554 0
-0.000107773 -0.00017577 0
-6.22345e-05 -0.000140554 0
-3.45859e-05 -0.000136427 0
1.56518e-06 -0.000147782 0
6.67143e-05 -0.000176028 0
3.73841e-05 -4.93825e-05 0
1.75079e-05 -1.06324e-05 0
4.28331e-05 0.00013698 0
4.45985e-05 0.000272194 0
-3.81469e-05 0.000158411 0
-0.000126443 0.000201745 0
-0.000142564 0.000204194 0
-0.000179666 0.000190585 0
-0.000246278 0.000206251 0
-0.000291141 0.000196999 0
-0.000306124 0.000193271 0
-0.000350207 0.000184193 0
-0.000400226 0.00018199 0
-0.000419026 0.000169159 0
-0.000437825 0.000162341 0
-0.000481275 0.00015541 0
-0.000516065 0.000146827 0
-0.000539307 0.000147325 0
-0.00058054 0.000147473 0
-0.00063115 0.000145708 0
-0.000674993 0.000152794 0
-0.000717956 0.000169807 0
-0.00076765 0.000178308 0
-0.000804685 0.000191317 0
-0.00082789 0.000209004 0
-0.00083838 0.000219702 0
-0.000829662 0.000208947 0
-0.00080383 0.000193966 0
-0.00076535 0.000166242 0
-0.000711894 0.000119477 0
-0.000646904 5.78327e-05 0
-0.000591479 4.68604e-06 0
-0.000534715 -5.25251e-05 0
-0.000473555 -0.000109109 0
-0.000425077 -0.000152962 0