# vtk DataFile Version 4.0
SiwiRVisFile
ASCII
DATASET STRUCTURED_POINTS
DIMENSIONS 25 25 1
ORIGIN 0 0 0
SPACING 1 1 1
POINT_DATA 625

SCALARS flags double 1
LOOKUP_TABLE default
1
1
1
1
1
1
1
1
1
1
1
1
1
1
1
1
1
1
1
1
1
1
1
1
1
1
1
1
1
1
1
1
1
1
1
1
1
1
1
1
1
1
1
1
1
1
1
1
1
1
1
1
1
1
1
1
1
1
1
1
1
1
1
1
1
1
1
1
1
1
1
1
1
1
1
1
1
1
1
1
1
1
1
1
1
1
1
1
1
1
1
1
1
1
1
1
1
1
1
1
1
1
1
1
1
1
1
1
1
1
1
1
1
1
1
1
1
1
1
1
1
1
1
1
1
1
1
1
1
1
1
1
1
1
1
1
1
1
1
1
1
1
1
1
1
1
1
1
1
1
1
1
1
1
1
1
1
1
1
1
1
1
1
1
1
1
1
1
1
1
1
1
1
1
1
1
1
1
1
1
1
1
1
1
1
1
1
1
1
1
1
1
1
1
1
1
1
1
1
1
1
1
1
1
1
1
1
1
1
1
1
1
1
1
1
1
1
1
1
1
1
1
1
1
1
1
1
1
1
1
1
1
1
1
1
1
1
1
1
1
1
1
1
1
1
1
1
1
1
1
1
1
1
1
1
1
1
1
1
1
1
1
1
1
1
1
1
1
1
1
1
1
1
1
1
1
1
1
1
1
1
1
1
1
1
1
1
1
1
1
1
1
1
1
1
1
1
1
1
1
1
1
1
1
1
1
1
1
1
1
1
1
1
1
1
1
1
1
1
1
1
1
1
1
1
1
1
1
1
1
1
1
1
1
1
1
1
1
1
1
1
1
1
1
1
1
1
1
1
1
1
1
1
1
1
1
1
1
1
1
1
1
1
1
1
1
1
1
1
1
1
1
1
1
1
1
1
1
1
1
1
1
1
1
1
1
1
1
1
1
1
1
1
1
1
1
1
1
1
1
1
1
1
1
1
1
1
1
1
1
1
1
1
1
1
1
1
1
1
1
1
1
1
1
1
1
1
1
1
1
1
1
1
1
1
1
1
1
1
1
1
1
1
1
1
1
1
1
1
1
1
1
1
1
1
1
1
1
1
1
1
1
1
1
1
1
1
1
1
1
1
1
1
1
1
1
1
1
1
1
1
1
1
1
1
1
1
1
1
1
1
1
1
1
1
1
1
1
1
1
1
1
1
1
1
1
1
1
1
1
1
1
1
1
1
1
1
1
1
1
1
1
1
1
1
1
1
1
1
1
1
1
1
1
1
1
1
1
1
1
1
1
1
1
1
1
1
1
1
1
1
1
1
1
1
1
1
1
1
1
1
1
1
1
1
1
1
1
1
1
1
1
1
1
1
1
1
1
1
1
1
1
1
1
1
1
1
1
1
1
1
1
1
1
1
1
1
1
1
1
1
1
1
1
1
1
1
1
1
1
1
1
1
1
1
1
1
1
1
1
1
1
1
1
1

SCALARS density double 1
LOOKUP_TABLE default
0.999758
0.999786
0.999906
0.999783
0.999705
0.999937
0.999944
0.999662
0.999807
1.00011
0.999816
0.999636
1.00007
1.00006
0.999616
0.999839
1.00019
0.999792
0.999645
1.00014
1.00004
0.999601
0.999934
1.00021
0.999736
1.00006
0.999528
0.999702
1.00012
0.999808
0.999595
0.999926
1.00001
0.999737
0.999782
0.999977
0.99991
0.99982
0.999862
0.99991
0.999935
0.999884
0.999802
0.99992
1.00002
0.999846
0.999763
1.00003
1.00003
0.999717
0.999745
0.99994
0.999786
0.999745
0.999922
0.999828
0.999712
0.999959
0.999945
0.999661
0.999892
1.0001
0.999726
0.999731
1.00014
0.999905
0.9996
1.00004
1.00013
0.999603
0.999812
1.00027
0.999809
0.999557
1.00017
0.999607
1.00012
0.999916
0.999496
0.999817
1.0001
0.999779
0.999621
0.999969
1.00002
0.999736
0.999772
1.00001
0.999955
0.999765
0.999834
0.999998
0.999929
0.99979
0.999869
0.99999
0.999938
0.999826
0.999873
0.999986
1.00003
0.99948
0.999735
1.00002
0.999774
0.99971
0.999988
0.999818
0.999703
1
0.999903
0.999694
0.999988
1.00001
0.999675
0.999885
1.00012
0.999707
0.9997
1.00026
0.999939
0.999485
1.00008
1.0003
0.999542
0.999799
0.999397
0.99973
1.00012
0.999851
0.999561
0.999861
1.00009
0.999731
0.999623
1.00001
1.00006
0.999728
0.999766
1.00007
0.999921
0.999672
0.999908
1.00005
0.999817
0.999822
1.00003
0.999924
0.999851
0.999981
0.999228
1.00021
0.99975
1
0.999899
1.00008
0.999539
0.999669
1.00004
0.999815
0.999796
1.00001
0.999841
0.999802
1.00005
0.999866
0.999679
1
1
1
0.999927
1.0004
0.999704
0.999509
1.00039
0.999676
0.999724
0.999434
1
0.999748
0.999932
0.999704
0.999463
0.999885
1.00015
0.999798
0.999692
1.00008
1.00007
0.999627
0.999802
1.00015
1
1
1
1.00003
0.999655
1.00008
1.00015
0.999679
0.999917
0.998537
0.9993
1
0.999509
0.999091
1.00005
0.999967
1
0.999921
1.00005
0.999856
0.999864
0.999927
0.999832
0.999993
0.999972
1
1
1
0.999925
0.99946
1.00025
1.00045
0.999478
0.998926
0.999578
0.999611
1
0.999695
0.999597
0.999405
0.999621
0.999718
0.999708
0.999969
1.00012
0.999752
0.999742
1.00021
0.999935
0.999518
1.0002
1.00038
0.999528
0.999984
1.00061
0.999676
0.999578
1.00056
0.998858
1.00032
0.9993
0.99811
0.999533
1.00028
0.999095
0.999133
1.0002
0.999954
0.999591
0.999859
1.0001
0.999983
0.999896
0.99981
0.999928
1.00021
1.00002
0.999576
1.00019
1.00048
0.999713
0.999538
1.00046
1.00003
0.998531
0.998874
1.00005
0.999102
0.998851
0.99979
1
0.999659
0.999658
1
0.999849
1.00001
1.00006
0.999646
0.999992
1.00042
0.999574
0.999639
1.00078
0.999964
0.999117
1.00061
1.00065
0.998981
0.999436
0.998135
0.999281
1.00029
0.998976
0.99832
0.999603
1.00016
0.998718
1
1.00025
1.00006
0.999721
0.999904
1.0001
1.00003
0.999878
0.999812
1.00008
1.00023
0.999887
0.999731
1.00016
1.00041
0.999774
0.998126
1.00068
0.999592
0.997697
0.999591
1.00041
0.998452
0.998836
0.999831
0.999989
0.999687
0.999988
0.999988
0.999863
1.00019
0.999868
0.999499
1.00053
1.00035
0.998918
1.00021
1.00128
0.99905
0.999036
1.00155
0.999384
0.999925
0.998941
0.998581
0.999462
0.99973
0.998875
0.998829
0.999899
1.00003
0.999567
0.999821
1.00027
0.999955
0.999675
1.00002
1.00016
0.999938
0.999787
1.00009
1.00002
0.999981
1.00025
0.999796
0.999685
1.00056
0.996932
0.998816
1.00137
0.998501
0.997443
1.00055
1
0.999427
0.999347
1.00022
1
0.999756
1.00009
0.999867
0.999969
1.00032
0.99936
0.999625
1.00143
0.999615
0.998316
1.00136
1.00138
0.997884
0.998233
0.999109
0.999629
0.998933
0.999052
0.999179
0.998924
1
0.999719
0.999852
1.00009
1
0.999643
1.00005
1.00031
0.999663
0.999667
1.00025
1.00016
0.999437
1.00026
1.00063
0.999122
0.999961
1.00146
0.997636
1.00217
0.999347
0.996261
1
1.00128
0.997274
1
1.0005
1.00016
0.999126
1.00014
1.00045
0.999617
0.9998
1.00022
0.9997
1.00011
1
0.998102
1.00052
1.00225
0.998426
0.998113
1.00257
1.00097
0.997574
0.998154
1.00063
0.998791
0.997964
0.999974
1
0.999816
1
0.999866
0.99994
1.00016
0.999902
0.999562
1.00023
1.00017
0.999562
1
1.00139
0.999231
0.99839
1.00209
1.00101
0.996905
1.00007
0.995255
0.998921
1.00205
0.998179
0.996998
1.00064
1
0.999188
0.99951
1.00083
0.999682
0.999281
1.00066
1.00031
0.999042
1
1
1
1.00155
0.99967
0.997627
1.00167
1.00234
0.997372
0.995159
1.00228
1.00011
0.995227
0.999418
1.00123
0.997978
0.998576
1.0006
1.00006
0.999885
0.999946
0.999925
0.999678
1.00045
1.00009
1
1
1
1
1
1
1
0.998721
1.00669
0.999093
1.00237
0.997726
0.995755
0.999688
1.00061
0.998051
0.99918
1.0008
0.999844
0.99897
1.00031
1.00096
0.998932
0.999343
1.00147
1
1
1
1
1.00493
1.01079
1.00161
1.00146
1.00793
1.00246
0.989928
0.996796
1.00475
1
0.996517
1.00068
1.00061
0.998516
1.00027
1
0.999876
0.999873
1.00094
0.999104
0.998735
1.00232
0.997763
0.999222
1.00986
1.00588
0.995237
1.00582
1.01463
0.998541
0.99372
0.995972
1.00032
0.999317
0.995825
0.998072
0.999743
0.999133
1.00013
1.00216
1.00129
1.00696
1
1.00083
1.00124
0.998361
1
0.999543
1.00343
1.00623
1.00172
1.00082
1.00796
1.00708
1.00393
0.994003
1.00959
0.998739
0.992017
0.999764
1.00076
0.997141
0.998532
1.00137
1.00132
1.00313
1.00835
1.00223
0.994977
0.999807
1.00314
1.00096
1.00644
1.00573
0.995333
1.00263
1.01488
1.00051
0.99294
1.02414

VECTORS velocity double
-1.69413e-06 3.01457e-06 0
-0.000145004 8.06911e-05 0
-0.000266139 4.24204e-06 0
-0.00026234 -2.12875e-05 0
-0.000249747 2.11888e-05 0
-0.000439623 9.46371e-05 0
-0.000544539 -2.24509e-05 0
-0.000483619 -2.7809e-05 0
-0.000490152 4.35447e-05 0
-0.000594526 1.33302e-05 0
-0.000541372 -4.57548e-05 0
-0.000467707 -7.21097e-06 0
-0.000437602 -4.57765e-06 0
-0.00043768 -1.16514e-05 0
-0.000410153 1.28034e-06 0
-0.000398746 -1.28516e-05 0
-0.000358733 -1.24077e-05 0
-0.000388254 1.79949e-05 0
-0.000433305 2.61612e-05 0
-0.000368869 -7.58377e-05 0
-0.000231366 -9.31663e-06 0
-0.000247905 2.39591e-05 0
-0.000207647 -2.35362e-05 0
-9.34897e-05 -5.35017e-05 0
3.88578e-06 7.68103e-06 0
-9.00061e-05 0.000131994 0
-0.000405526 0.000346521 0
-0.0006145 8.37122e-05 0
-0.000774203 4.03836e-05 0
-0.00112341 0.000268108 0
-0.00137199 0.000235387 0
-0.00131555 -2.47549e-05 0
-0.00146523 5.80244e-05 0
-0.00170738 0.00014658 0
-0.00164137 -6.15022e-05 0
-0.00140683 -0.000152751 0
-0.0014467 -3.49831e-06 0
-0.00140961 -9.48356e-05 0
-0.00112561 -0.000139922 0
-0.00102568 3.43546e-05 0
-0.00123565 3.08686e-05 0
-0.00122382 -8.53397e-05 0
-0.00105103 4.90416e-07 0
-0.0010545 6.01783e-05 0
-0.00114362 -0.000187867 0
-0.000895598 -0.00022897 0
-0.000544347 -0.000111094 0
-0.00039622 -0.000120415 0
-0.000296999 -0.000263592 0
-7.26934e-05 -0.000114545 0
-0.000125014 0.000439893 0
-0.000323476 0.000519124 0
-0.000717345 0.000498775 0
-0.00141632 0.000456118 0
-0.00167607 0.000485825 0
-0.00164395 0.000262578 0
-0.00194546 0.000245469 0
-0.00240832 0.000294953 0
-0.0023508 7.65362e-05 0
-0.00224636 -0.000129307 0
-0.00231057 -0.000214167 0
-0.00208427 -0.000206874 0
-0.00174708 -0.000262626 0
-0.0017358 -0.000244438 0
-0.00164162 -3.43464e-05 0
-0.00142875 6.05154e-05 0
-0.00150709 -2.12267e-05 0
-0.00170215 -6.321e-05 0
-0.00147655 -8.82495e-05 0
-0.00128138 -0.000174635 0
-0.00129588 -0.00046694 0
-0.00100067 -0.000546683 0
-0.000450098 -0.000327622 0
-0.000221352 -0.000334076 0
-8.14168e-05 -0.000327975 0
6.06805e-05 0.000543108 0
-0.0004422 0.00101465 0
-0.00139115 0.00122508 0
-0.00181307 0.00083485 0
-0.001644 0.000425527 0
-0.00185642 0.000526676 0
-0.00241586 0.00070002 0
-0.00272868 0.000526386 0
-0.00276117 2.0429e-05 0
-0.00286847 -0.000143063 0
-0.00282124 -0.000336247 0
-0.00238615 -0.000580521 0
-0.00198441 -0.000469923 0
-0.00190628 -0.000328573 0
-0.00172924 -0.000225469 0
-0.00148169 -3.32704e-05 0
-0.00153386 0.000147403 0
-0.00181631 -1.80615e-05 0
-0.00175018 -0.000305415 0
-0.0013748 -0.000406042 0
-0.00117541 -0.000560919 0
-0.00113365 -0.000912265 0
-0.0007019 -0.000910768 0
-0.000158866 -0.000643223 0
6.01448e-05 -0.000410884 0
-0.000156254 0.000676017 0
-0.00115421 0.00231139 0
-0.00173721 0.00154336 0
-0.00129768 0.000608579 0
-0.00126091 0.000516263 0
-0.00199171 0.00121756 0
-0.00248278 0.00101855 0
-0.00274831 0.000752617 0
-0.00323623 0.000331019 0
-0.00327822 -0.000313958 0
-0.00277221 -0.00072343 0
-0.00252648 -0.000865271 0
-0.00228371 -0.000821832 0
-0.00175561 -0.000631571 0
-0.00146728 -0.000356672 0
-0.00151821 -0.000118998 0
-0.00127805 0.000127011 0
-0.00100561 7.97446e-05 0
-0.00127418 -0.000215835 0
-0.00151682 -0.00078647 0
-0.0011971 -0.000721876 0
-0.000934152 -0.000939539 0
-0.000793367 -0.00131811 0
-0.000439834 -0.00120965 0
-4.01333e-05 -0.000334891 0
-0.000388203 0.00147965 0
-0.000954078 0.00290951 0
-0.000981039 0.00141877 0
-0.000754458 0.000166551 0
-0.000680043 0.000882435 0
-0.00109875 0.00188761 0
-0.00202476 0.00181642 0
-0.00318223 0.00126993 0
-0.00364326 0.000479971 0
-0.0032322 -0.000635712 0
-0.00262979 -0.00115758 0
-0.00239408 -0.00114376 0
-0.0021359 -0.00120772 0
-0.00168 -0.00100369 0
-0.00118884 -0.000670235 0
-0.000815983 -0.000363844 0
-0.000573219 -7.08402e-05 0
-0.000457852 4.35514e-05 0
-0.000446149 -5.30604e-05 0
-0.000770473 -0.00049918 0
-0.00104465 -0.000930583 0
-0.000758323 -0.00143835 0
-0.00045035 -0.00141244 0
-0.000536681 -0.00144981 0
-0.000248656 -0.000825275 0
-0.000106183 0.00221904 0
-0.000164466 0.00252524 0
-4.01113e-05 0.00148756 0
0 0 0
-0.00019293 0.00127835 0
-0.000861361 0.0024591 0
-0.00206078 0.00329384 0
-0.00299809 0.00206887 0
-0.00279144 0.000124548 0
-0.00261597 -0.000976673 0
-0.00266948 -0.00148295 0
-0.00220757 -0.00157164 0
-0.00166654 -0.00149655 0
-0.00157827 -0.00136321 0
-0.00126625 -0.00121996 0
-0.000646777 -0.000752757 0
-0.000146983 -0.000407659 0
0 0 0
0 0 0
0 0 0
-0.000487478 -0.000638612 0
-0.000798688 -0.00182208 0
-0.000300402 -0.00156569 0
-5.64477e-05 -0.00120255 0
-2.31895e-05 -0.00116896 0
0.000406945 0.00177784 0
0.00022543 0.00302595 0
-0.000147302 0.00141782 0
0 0 0
-0.000103849 0.00162112 0
-0.00103161 0.00370905 0
-0.0017785 0.0038592 0
-0.00167858 0.00228099 0
-0.00144368 -7.14878e-05 0
-0.00143487 -0.00107472 0
-0.00161197 -0.00148178 0
-0.00176314 -0.00175232 0
-0.00185837 -0.00163976 0
-0.00173123 -0.00175141 0
-0.00121464 -0.00161977 0
-0.000604575 -0.00129233 0
-0.000119387 -0.000828065 0
0 0 0
0 0 0
0 0 0
-4.60569e-05 -0.000426514 0
-0.000427536 -0.00137523 0
-0.000481236 -0.00233848 0
0.000123235 -0.00181813 0
0.000281044 -0.00089782 0
-0.00022559 0.00147762 0
-0.000348204 0.00366187 0
-7.93037e-05 0.0010712 0
0 0 0
-0.000113932 0.00194406 0
-0.000666999 0.00496695 0
-0.000736996 0.00346057 0
-0.000222293 0.00164495 0
0 0 0
-0.000436459 -0.000604859 0
-0.00121225 -0.000988851 0
-0.00193416 -0.00142207 0
-0.00209518 -0.00174646 0
-0.0015014 -0.00215451 0
-0.00117975 -0.00189904 0
-0.00132948 -0.00189829 0
-0.000646484 -0.00137038 0
0 0 0
0 0 0
0 0 0
9.46631e-05 -0.000284315 0
0.000196275 -0.000989573 0
-7.96439e-05 -0.00224329 0
-0.000452143 -0.00213126 0
-0.000213471 -0.00064846 0
-0.000283901 0.00224277 0
-6.55526e-05 0.00282617 0
0.000247227 0.00113491 0
0 0 0
-0.000807893 0.00277767 0
-0.00171738 0.0047235 0
-0.00147937 0.00354236 0
-0.00110751 0.00122021 0
-0.0010164 9.13491e-05 0
-0.00101723 -8.43826e-05 0
-0.00148746 -2.32415e-05 0
-0.00208529 -0.00110678 0
-0.00205881 -0.00199143 0
-0.00216436 -0.00223012 0
-0.00221995 -0.00212967 0
-0.00190251 -0.00219523 0
-0.00196121 -0.00145459 0
-0.00182744 -0.000769818 0
-0.000970296 -0.000253738 0
-0.000733657 -9.19267e-05 0
-0.000543787 -0.000422532 0
0.000126035 -0.00197499 0
0.000366905 -0.00152623 0
-0.000339812 -0.00160745 0
-0.000337448 -0.00164483 0
0.000302246 0.00222617 0
0.000615491 0.00220522 0
0.000276704 0.00168581 0
-0.00131735 0.00126728 0
-0.00207979 0.00367277 0
-0.00213286 0.00469688 0
-0.0025884 0.0037709 0
-0.00215432 0.000623423 0
-0.00116334 -0.00039113 0
-0.00152479 0.00037481 0
-0.00221642 0.000301206 0
-0.00164601 -0.0012557 0
-0.0014916 -0.00178892 0
-0.00256415 -0.00173315 0
-0.00317144 -0.00212076 0
-0.00293597 -0.00216828 0
-0.00316825 -0.00110939 0
-0.00366549 -0.0013583 0
-0.00287566 -0.000872266 0
-0.00162334 -0.000708266 0
-0.00102683 -0.000574787 0
-0.00111841 -0.00223546 0
-0.000494428 -0.00167007 0
0.000350603 -0.00128785 0
0.000317277 -0.00150629 0
0.000438781 0.00111843 0
0.000111734 0.00346807 0
-0.000922315 0.00241431 0
-0.00142436 0.00211772 0
-0.00255459 0.00442002 0
-0.00364748 0.00545067 0
-0.00181294 0.0019912 0
0 0 0
-0.000911768 0.000114856 0
-0.000921712 0.000372227 0
0 0 0
-0.00102841 -0.000725854 0
-0.00251271 -0.000920537 0
-0.00267914 -0.00136978 0
-0.00278186 -0.00162435 0
-0.00392183 -0.00163457 0
-0.00417565 -0.00148432 0
-0.00353568 -0.00110954 0
-0.00380832 -0.00133395 0
-0.00360049 -0.00225946 0
-0.00191889 -0.00152796 0
-0.00144594 -0.00181076 0
-0.0013595 -0.00310875 0
-0.000312754 -0.00286459 0
0.000321132 -0.000788635 0
-0.000642 0.00137942 0
-0.0008094 0.00379721 0
-0.000642273 0.00329496 0
-0.0024769 0.00337777 0
-0.00372241 0.00497529 0
-0.00209419 0.00423998 0
-0.000786241 0.000327498 0
-0.0018728 0.00034419 0
-0.00132126 -0.000208839 0
0 0 0
-0.000479141 0.000461008 0
-0.00161143 0.000573873 0
-0.00237591 -0.000219501 0
-0.00252297 -0.00120138 0
-0.00309452 -0.000881489 0
-0.00422126 -0.00087685 0
-0.00447699 -0.00168518 0
-0.00391041 -0.00122008 0
-0.00378216 -0.0014316 0
-0.00410662 -0.00247273 0
-0.0032261 -0.00273933 0
-0.00154629 -0.00258672 0
-0.00108763 -0.00258236 0
-0.00190069 -0.00310032 0
-0.000950655 -0.00144132 0
-0.000250517 0.00275288 0
-0.000345271 0.00244173 0
-0.00088348 0.00442266 0
-0.00286088 0.00609329 0
-0.00339485 0.00440163 0
-0.00314505 0.00268416 0
-0.00477342 0.00206453 0
-0.00489175 -5.45477e-05 0
-0.00327175 -0.00165975 0
-0.00303662 -0.000449452 0
-0.00316287 0.00130376 0
-0.00271007 0.000970103 0
-0.00201533 -0.00020514 0
-0.00284295 -0.000346298 0
-0.00369521 -0.000323177 0
-0.00309257 -0.000801759 0
-0.00365099 -0.00075066 0
-0.00513606 -0.00167168 0
-0.00419977 -0.00232037 0
-0.00330978 -0.00191159 0
-0.00404143 -0.00355683 0
-0.00343168 -0.00522984 0
-0.00115247 -0.00269077 0
-0.000558258 -0.00266238 0
-0.000201692 -0.00355205 0
0.000510863 0.00237028 0
-0.000563916 0.00394893 0
-0.0024922 0.00588121 0
-0.00244275 0.0061911 0
-0.00224391 0.0048201 0
-0.00368505 0.00409066 0
-0.0042873 0.00284831 0
-0.00472535 -0.000425757 0
-0.00485017 -0.00225004 0
-0.00418148 -0.00103155 0
-0.00367293 0.000945888 0
-0.00289504 -9.97976e-06 0
-0.00237761 -0.000504726 0
-0.00242241 0.000195693 0
-0.00255232 -0.000146904 0
-0.00272503 -0.000671883 0
-0.00356076 0.000354623 0
-0.00453042 -0.00140831 0
-0.00454919 -0.00238033 0
-0.0035711 -0.00306303 0
-0.00279488 -0.00302638 0
-0.00387833 -0.00497396 0
-0.00289255 -0.00518168 0
-0.000227399 -0.00409173 0
0.0008384 -0.00243643 0
-3.92416e-05 0.00164387 0
-0.001382 0.0070435 0
-0.00219517 0.00627333 0
-0.00163206 0.00463909 0
-0.00218524 0.0062777 0
-0.00334203 0.00580212 0
-0.00177014 0.000853898 0
0 0 0
-0.00174841 -0.00126186 0
-0.00285428 -0.00118362 0
-0.00133076 -0.000362288 0
-0.000914497 -0.00036214 0
-0.00162391 5.18126e-05 0
-0.00121508 -0.000235435 0
-0.00110216 8.2576e-05 0
-0.00282641 0.000688008 0
-0.00283397 0.000103522 0
-0.00146481 -0.00103876 0
-0.00367401 -0.000787861 0
-0.005897 -0.00506979 0
-0.00368438 -0.00360421 0
-0.0027878 -0.00383222 0
-0.00337253 -0.00691003 0
-0.00296358 -0.00730688 0
-0.000461889 -0.00231043 0
-0.00157939 0.00401711 0
-0.00171504 0.00578937 0
-9.50803e-05 0.00601491 0
-0.00191244 0.00675124 0
-0.00263136 0.00576057 0
-0.0002104 0.00357147 0
0.000651448 0.000453961 0
0 0 0
0.000264973 -0.000387206 0
8.32307e-05 -0.00106092 0
-0.000180765 -0.00124978 0
0 0 0
-0.000205677 0.000239027 0
-0.000809977 -2.18006e-05 0
-0.00133572 0.000565243 0
-0.00121239 0.00113819 0
-0.000860636 -0.000661359 0
-0.00110996 -5.24294e-05 0
-0.00154694 0.000319485 0
-0.00329442 -0.00278008 0
-0.00482836 -0.00452379 0
-0.00366268 -0.00652996 0
-0.00179826 -0.00482003 0
-0.00396551 -0.00667378 0
-0.0020199 -0.00606715 0
0.000731929 0.00537299 0
0.000583962 0.00426637 0
-0.00183277 0.00744029 0
-0.00406065 0.00898963 0
-0.00298174 0.004103 0
-0.00105428 0.00121937 0
-0.000242954 0.00124443 0
0 0 0
-0.0002332 -0.000420584 0
-0.000446359 -0.000944213 0
-0.00105809 -0.000601738 0
-0.000771798 -0.000277934 0
0.000154206 -0.000163434 0
-0.000331611 0.00113523 0
-0.000662503 0.000948644 0
0.000428178 -7.36771e-05 0
0.000105919 -0.000385413 0
-0.000641321 0.000315157 0
0 0 0
-0.000308821 0.000280803 0
-0.00341494 -0.0029362 0
-0.00672109 -0.00880238 0
-0.00337857 -0.00575429 0
-0.000402278 -0.00711069 0
0.00128828 -0.00808644 0
0.000870719 0.00290243 0
-0.00225995 0.00991594 0
-0.00598752 0.00976669 0
-0.00387595 0.00591853 0
-0.00217267 0.0037187 0
-0.00265265 0.0012048 0
-0.00129197 -0.00114852 0
0 0 0
-0.000543791 0.000527289 0
-0.00093093 -0.00103478 0
-0.00116241 -0.000378813 0
-0.00173623 -0.000644328 0
-0.00200026 -0.000299545 0
-0.00045776 9.12303e-05 0
0.000741789 0.0004414 0
0.000325551 0.000352871 0
-9.81523e-08 0.000120032 0
4.65937e-05 -3.08299e-05 0
0 0 0
-0.000149066 0.000628366 0
0.000104978 -0.000139081 0
-0.00351408 -0.00417888 0
-0.00591671 -0.00977257 0
-0.00374221 -0.0132867 0
0.00112377 -0.00540631 0
-0.00198216 0.00445589 0
-0.00472142 0.0137763 0
-0.00392498 0.00915942 0
-0.005088 0.00568426 0
-0.0093265 0.00461285 0
-0.00916401 8.62797e-05 0
-0.00366201 -0.00502247 0
0 0 0
-0.00162392 0.00190223 0
-0.00314232 3.16144e-05 0
-0.00201916 -0.00137423 0
-0.000866977 -8.97921e-05 0
-0.0013921 -9.68341e-05 0
-0.00120863 -0.00131145 0
-0.000509081 -0.000907024 0
5.51918e-05 0.00146854 0
0 0 0
0 0 0
0 0 0
-0.000283967 6.10017e-05 0
0.000978072 0.000139355 0
-3.30508e-05 -0.000189439 0
-0.00560635 -0.00587672 0
-0.0105862 -0.0166557 0
-0.00326006 -0.00946289 0
-0.00256317 0.0111459 0
-0.00233538 0.00889826 0
-0.00148252 0.0102528 0
-0.00798275 0.0136679 0
-0.0085481 0.00302863 0
-0.00534732 -0.00255697 0
-0.00846013 -0.0063205 0
-0.00871535 -0.00250299 0
-0.00264307 -0.000550419 0
-0.0011815 0.00190508 0
-0.00396065 -0.00225842 0
-0.00325921 -0.000767089 0
-0.00087013 -0.00177872 0
-0.000238049 0.00012081 0
-0.00177473 -0.00112034 0
-0.0009831 0.000124214 0
0 0 0
0 0 0
0 0 0
0 0 0
0 0 0
0 0 0
0 0 0
-0.00485833 -0.0111366 0
-0.00370296 -0.0212587 0
0.00362369 0.00956121 0
-0.000985375 0.0132619 0
-0.0107894 0.0149833 0
-0.0103988 0.0138211 0
-0.00518922 0.000822527 0
-0.00376823 -0.0017253 0
-0.00803224 -0.00213902 0
-0.01035 -0.00513505 0
-0.00727325 -0.00400893 0
-0.00403345 0.00135667 0
-0.00265289 -0.00123162 0
-0.00193981 -0.00221562 0
-0.000358251 -0.00442301 0
0.00193963 0.000181197 0
0.00123633 0.000896383 0
-0.000108102 -0.00143653 0
0 0 0
0 0 0
0 0 0
0 0 0
-0.00416569 0.00336484 0
-0.0110161 5.07539e-05 0
-0.00815838 -0.00193651 0
0.00335454 -0.0165289 0
0.0073542 -0.0172805 0
-0.00270583 0.00770276 0
-0.0133274 0.0293802 0
-0.0103142 0.0120644 0
0.000182084 0.00538115 0
0 0 0
-0.00172104 0.000323533 0
-0.00135155 0.000243286 0
-0.00282211 -0.00410191 0
-0.00567732 -0.00548281 0
-0.00271291 -0.00506073 0
0 0 0
0.000294942 -0.00455975 0
-0.00167442 -0.0025795 0
-0.00210695 -0.00398881 0
0.00205468 0.000909074 0
-0.000496266 0.00266625 0
-0.0042365 0.00013969 0
-0.00209988 -0.002192 0
0.000140704 0.00113502 0
-0.00725019 0.00558013 0
-0.0079349 0.00593809 0
-0.00432771 0.00202775 0
-0.00559664 -0.00454939 0
-0.00722738 -0.0314174 0
-0.00203996 -0.0103703 0
-0.00631856 0.0211426 0
-0.00708584 0.0230596 0
0.00593595 0.00238119 0
0.0161453 -2.16214e-05 0
0.0156548 0.00403759 0
0.0120416 -0.000588103 0
0.0157257 -0.000965179 0
0.0167268 -0.00101933 0
0.0102127 -0.00155871 0
0.00570095 -0.00656477 0
0.0108591 -0.00375791 0
0.00790044 0.00071283 0
0 0 0
0.00216482 -0.00666169 0
0.00497527 -1.86182e-05 0
0.00199642 0.00697924 0
0 0 0
0.00290651 -0.00571351 0
0.0057717 0.00288675 0
0.00310024 0.0092765 0
0.00661225 0.000563315 0
0.0116697 0.000918826 0
0.0074289 0.000355798 0
-0.00602707 -0.0223264 0
-0.00613718 -0.0222285 0
0.0234879 0.0152553 0
0.0515418 0.00361788 0
0.0541469 -0.00194109 0
0.0489136 -0.0017098 0
0.0523458 0.00380898 0
0.056015 -0.00137038 0
0.0525421 -0.0011366 0
0.0511722 4.78075e-05 0
0.0532027 0.00111776 0
0.0520694 -0.0020138 0
0.0434973 -0.0038259 0
0.0438714 0.00386019 0
0.0494698 -0.000380314 0
0.0441057 -0.00360392 0
0.0384463 -0.00030555 0
0.044133 0.00425804 0
0.0496713 -0.000267694 0
0.0439181 -0.00380102 0
0.0401747 0.0013663 0
0.0487191 0.00393486 0
0.0521739 -0.00203789 0
0.0480419 -0.000441384 0
0.0525314 0.00368253 0
0.0525374 -0.00364656 0
0.0231805 -0.0154641 0


