# vtk DataFile Version 4.0
SiwiRVisFile
ASCII
DATASET STRUCTURED_POINTS
DIMENSIONS 50 50 1
ORIGIN 0 0 0
SPACING 1 1 1
POINT_DATA 2500


SCALARS flags double 1
LOOKUP_TABLE default
1
1
1
1
1
1
1
1
1
1
1
1
1
1
1
1
1
1
1
1
1
1
1
1
1
1
1
1
1
1
1
1
1
1
1
1
1
1
1
1
1
1
1
1
1
1
1
1
1
1
1
1
1
1
1
1
1
1
1
1
1
1
1
1
1
1
1
1
1
1
1
1
1
1
1
1
1
1
1
1
1
1
1
1
1
1
1
1
1
1
1
1
1
1
1
1
1
1
1
1
1
1
1
1
1
1
1
1
1
1
1
1
1
1
1
1
1
1
1
1
1
1
1
1
1
1
1
1
1
1
1
1
1
1
1
1
1
1
1
1
1
1
1
1
1
1
1
1
1
1
1
1
1
1
1
1
1
1
1
1
1
1
1
1
1
1
1
1
1
1
1
1
1
1
1
1
1
1
1
1
1
1
1
1
1
1
1
1
1
1
1
1
1
1
1
1
1
1
1
1
1
1
1
1
1
1
1
1
1
1
1
1
1
1
1
1
1
1
1
1
1
1
1
1
1
1
1
1
1
1
1
1
1
1
1
1
1
1
1
1
1
1
1
1
1
1
1
1
1
1
1
1
1
1
1
1
1
1
1
1
1
1
1
1
1
1
1
1
1
1
1
1
1
1
1
1
1
1
1
1
1
1
1
1
1
1
1
1
1
1
1
1
1
1
1
1
1
1
1
1
1
1
1
1
1
1
1
1
1
1
1
1
1
1
1
1
1
1
1
1
1
1
1
1
1
1
1
1
1
1
1
1
1
1
1
1
1
1
1
1
1
1
1
1
1
1
1
1
1
1
1
1
1
1
1
1
1
1
1
1
1
1
1
1
1
1
1
1
1
1
1
1
1
1
1
1
1
1
1
1
1
1
1
1
1
1
1
1
1
1
1
1
1
1
1
1
1
1
1
1
1
1
1
1
1
1
1
1
1
1
1
1
1
1
1
1
1
1
1
1
1
1
1
1
1
1
1
1
1
1
1
1
1
1
1
1
1
1
1
1
1
1
1
1
1
1
1
1
1
1
1
1
1
1
1
1
1
1
1
1
1
1
1
1
1
1
1
1
1
1
1
1
1
1
1
1
1
1
1
1
1
1
1
1
1
1
1
1
1
1
1
1
1
1
1
1
1
1
1
1
1
1
1
1
1
1
1
1
1
1
1
1
1
1
1
1
1
1
1
1
1
1
1
1
1
1
1
1
1
1
1
1
1
1
1
1
1
1
1
1
1
1
1
1
1
1
1
1
1
1
1
1
1
1
1
1
1
1
1
1
1
1
1
1
1
1
1
1
1
1
1
1
1
1
1
1
1
1
1
1
1
1
1
1
1
1
1
1
1
1
1
1
1
1
1
1
1
1
1
1
1
1
1
1
1
1
1
1
1
1
1
1
1
1
1
1
1
1
1
1
1
1
1
1
1
1
1
1
1
1
1
1
1
1
1
1
1
1
1
1
1
1
1
1
1
1
1
1
1
1
1
1
1
1
1
1
1
1
1
1
1
1
1
1
1
1
1
1
1
1
1
1
1
1
1
1
1
1
1
1
1
1
1
1
1
1
1
1
1
1
1
1
1
1
1
1
1
1
1
1
1
1
1
1
1
1
1
1
1
1
1
1
1
1
1
1
1
1
1
1
1
1
1
1
1
1
1
1
1
1
1
1
1
1
1
1
1
1
1
1
1
1
1
1
1
1
1
1
1
1
1
1
1
1
1
1
1
1
1
1
1
1
1
1
1
1
1
1
1
1
1
1
1
1
1
1
1
1
1
1
1
1
1
1
1
1
1
1
1
1
1
1
1
1
1
1
1
1
1
1
1
1
1
1
1
1
1
1
1
1
1
1
1
1
1
1
1
1
1
1
1
1
1
1
1
1
1
1
1
1
1
1
1
1
1
1
1
1
1
1
1
1
1
1
1
1
1
1
1
1
1
1
1
1
1
1
1
1
1
1
1
1
1
1
1
1
1
1
1
1
1
1
1
1
1
1
1
1
1
1
1
1
1
1
1
1
1
1
1
1
1
1
1
1
1
1
1
1
1
1
1
1
1
1
1
1
1
1
1
1
1
1
1
1
1
1
1
1
1
1
1
1
1
1
1
1
1
1
1
1
1
1
1
1
1
1
1
1
1
1
1
1
1
1
1
1
1
1
1
1
1
1
1
1
1
1
1
1
1
1
1
1
1
1
1
1
1
1
1
1
1
1
1
1
1
1
1
1
1
1
1
1
1
1
1
1
1
1
1
1
1
1
1
1
1
1
1
1
1
1
1
1
1
1
1
1
1
1
1
1
1
1
1
1
1
1
1
1
1
1
1
1
1
1
1
1
1
1
1
1
1
1
1
1
1
1
1
1
1
1
1
1
1
1
1
1
1
1
1
1
1
1
1
1
1
1
1
1
1
1
1
1
1
1
1
1
1
1
1
1
1
1
1
1
1
1
1
1
1
1
1
1
1
1
1
1
1
1
1
1
1
1
1
1
1
1
1
1
1
1
1
1
1
1
1
1
1
1
1
1
1
1
1
1
1
1
1
1
1
1
1
1
1
1
1
1
1
1
1
1
1
1
1
1
1
1
1
1
1
1
1
1
1
1
1
1
1
1
1
1
1
1
1
1
1
1
1
1
1
1
1
1
1
1
1
1
1
1
1
1
1
1
1
1
1
1
1
1
1
1
1
1
1
1
1
1
1
1
1
1
1
1
1
1
1
1
1
1
1
1
1
1
1
1
1
1
1
1
1
1
1
1
1
1
1
1
1
1
1
1
1
1
1
1
1
1
1
1
1
1
1
1
1
1
1
1
1
1
1
1
1
1
1
1
1
1
1
1
1
1
1
1
1
1
1
1
1
1
1
1
1
1
1
1
1
1
1
1
1
1
1
1
1
1
1
1
1
1
1
1
1
1
1
1
1
1
1
1
1
1
1
1
1
1
1
1
1
1
1
1
1
1
1
1
1
1
1
1
1
1
1
1
1
1
1
1
1
1
1
1
1
1
1
1
1
1
1
1
1
1
1
1
1
1
1
1
1
1
1
1
1
1
1
1
1
1
1
1
1
1
1
1
1
1
1
1
1
1
1
1
1
1
1
1
1
1
1
1
1
1
1
1
1
1
1
1
1
1
1
1
1
1
1
1
1
1
1
1
1
1
1
1
1
1
1
1
1
1
1
1
1
1
1
1
1
1
1
1
1
1
1
1
1
1
1
1
1
1
1
1
1
1
1
1
1
1
1
1
1
1
1
1
1
1
1
1
1
1
1
1
1
1
1
1
1
1
1
1
1
1
1
1
1
1
1
1
1
1
1
1
1
1
1
1
1
1
1
1
1
1
1
1
1
1
1
1
1
1
1
1
1
1
1
1
1
1
1
1
1
1
1
1
1
1
1
1
1
1
1
1
1
1
1
1
1
1
1
1
1
1
1
1
1
1
1
1
1
1
1
1
1
1
1
1
1
1
1
1
1
1
1
1
1
1
1
1
1
1
1
1
1
1
1
1
1
1
1
1
1
1
1
1
1
1
1
1
1
1
1
1
1
1
1
1
1
1
1
1
1
1
1
1
1
1
1
1
1
1
1
1
1
1
1
1
1
1
1
1
1
1
1
1
1
1
1
1
1
1
1
1
1
1
1
1
1
1
1
1
1
1
1
1
1
1
1
1
1
1
1
1
1
1
1
1
1
1
1
1
1
1
1
1
1
1
1
1
1
1
1
1
1
1
1
1
1
1
1
1
1
1
1
1
1
1
1
1
1
1
1
1
1
1
1
1
1
1
1
1
1
1
1
1
1
1
1
1
1
1
1
1
1
1
1
1
1
1
1
1
1
1
1
1
1
1
1
1
1
1
1
1
1
1
1
1
1
1
1
1
1
1
1
1
1
1
1
1
1
1
1
1
1
1
1
1
1
1
1
1
1
1
1
1
1
1
1
1
1
1
1
1
1
1
1
1
1
1
1
1
1
1
1
1
1
1
1
1
1
1
1
1
1
1
1
1
1
1
1
1
1
1
1
1
1
1
1
1
1
1
1
1
1
1
1
1
1
1
1
1
1
1
1
1
1
1
1
1
1
1
1
1
1
1
1
1
1
1
1
1
1
1
1
1
1
1
1
1
1
1
1
1
1
1
1
1
1
1
1
1
1
1
1
1
1
1
1
1
1
1
1
1
1
1
1
1
1
1
1
1
1
1
1
1
1
1
1
1
1
1
1
1
1
1
1
1
1
1
1
1
1
1
1
1
1
1
1
1
1
1
1
1
1
1
1
1
1
1
1
1
1
1
1
1
1
1
1
1
1
1
1
1
1
1
1
1
1
1
1
1
1
1
1
1
1
1
1
1
1
1
1
1
1
1
1
1
1
1
1
1
1
1
1
1
1
1
1
1
1
1
1
1
1
1
1
1
1
1
1
1
1
1
1
1
1
1
1
1
1
1
1
1
1
1
1
1
1
1
1
1
1
1
1
1
1
1
1
1
1
1
1
1
1
1
1
1
1
1
1
1
1
1
1
1
1
1
1
1
1
1
1
1
1
1
1
1
1
1
1
1
1
1
1
1
1
1
1
1
1
1
1
1
1
1
1
1
1
1
1
1
1
1
1
1
1
1
1
1
1
1
1
1
1
1
1
1
1
1
1
1
1
1
1
1
1
1
1
1
1
1
1
1
1
1
1
1
1
1
1
1
1
1
1
1
1
1
1
1
1
1
1
1
1
1
1
1
1
1
1
1
1
1
1
1
1
1
1
1
1
1
1
1
1
1
1
1
1
1
1
1
1
1
1
1
1
1
1
1
1
1
1
1
1
1
1
1
1
1
1
1
1
1
1
1
1
1
1
1
1
1
1
1
1
1
1
1
1
1
1
1
1
1
1
1
1
1
1
1
1
1
1
1
1
1
1
1
1
1
1
1
1
1
1
1
1
1
1
1
1
1
1
1
1
1
1
1
1
1
1
1
1
1
1
1
1
1
1
1
1
1
1
1
1
1
1
1
1
1
1
1
1
1
1
1
1
1
1
1
1
1
1
1
1
1
1
1
1
1
1
1
1
1
1
1
1
1
1
1
1
1
1
1
1
1
1
1
1
1
1
1
1
1
1
1
1
1
1
1
1
1
1
1
1
1
1
1
1
1
1
1
1
1
1
1
1
1
1
1
1
1
1
1
1
1
1
1
1
1
1
1
1
1
1
1
1
1
1
1
1
1
1
1
1
1
1
1
1
1
1
1
1
1
1
1
1
1
1
1
1
1
1
1
1
1
1
1
1
1
1
1
1
1
1
1
1
1
1
1
1
1
1
1
1
1
1
1
1
1
1
1
1
1
1
1
1
1
1
1
1
1
1
1
1
1
1
1
1
1
1
1
1
1
1
1
1
1
1
1
1
1
1
1
1
1
1
1
1
1
1
1
1
1
1
1
1
1
1
1
1
1
1
1
1
1
1
1
1
1
1
1
1
1
1
1
1
1
1
1
1
1
1
1
1
1
1
1
1
1
1
1
1
1
1
1
1
1
1
1
1
1
1
1
1
1
1
1
1
1
1
1
1
1
1
1
1
1
1
1
1
1
1
1
1
1
1
1
1
1
1
1
1
1
1
1
1
1
1
1
1
1
1
1
1
1
1
1
1
1
1
1
1
1
1
1
1
1
1
1
1
1
1
1

SCALARS density double 1
LOOKUP_TABLE default
0.999944
0.999911
0.999938
0.99995
0.99992
0.999929
0.999958
0.999941
0.999921
0.999959
0.999963
0.99991
0.99994
0.999993
0.999927
0.999902
0.999985
0.999971
0.999902
0.999943
0.999979
0.999931
0.999923
0.999961
0.999959
0.999928
0.999935
0.999968
0.999954
0.999916
0.999952
0.999982
0.999919
0.999913
0.999985
0.999958
0.999902
0.999953
0.999977
0.999927
0.999934
0.99997
0.99995
0.999933
0.999961
0.999973
0.999939
0.999952
0.99998
0.999947
0.999906
0.999936
0.999944
0.999921
0.99993
0.999938
0.999935
0.999942
0.999932
0.999937
0.999964
0.999944
0.999917
0.999958
0.999967
0.999916
0.999936
0.999973
0.999937
0.999929
0.999963
0.999951
0.999933
0.999953
0.999955
0.999935
0.999941
0.999957
0.999938
0.999931
0.999961
0.999952
0.999922
0.999955
0.999971
0.999928
0.999936
0.999969
0.999947
0.999932
0.999952
0.999957
0.999952
0.999955
0.99995
0.99996
0.999969
0.999944
0.999952
0.999983
0.999924
0.999942
0.999912
0.999907
0.999938
0.999936
0.9999
0.999928
0.999972
0.99991
0.999903
0.999985
0.999959
0.999895
0.999952
0.999992
0.999921
0.999909
0.999982
0.999963
0.999895
0.999944
0.999994
0.99992
0.999903
0.99999
0.999967
0.999895
0.999951
0.999995
0.999923
0.999912
0.999983
0.999965
0.999899
0.999942
0.999991
0.999929
0.999909
0.999986
0.999976
0.99992
0.999962
0.999988
0.999953
0.999951
0.999981
0.999978
0.999946
0.999964
0.999921
0.999896
0.999901
0.999905
0.999907
0.999915
0.999907
0.999907
0.999921
0.999932
0.99993
0.999924
0.999942
0.999948
0.999937
0.999941
0.99995
0.999945
0.999941
0.999954
0.999946
0.999939
0.999954
0.999948
0.999938
0.99995
0.999946
0.999938
0.999949
0.999945
0.999939
0.999949
0.999944
0.999941
0.99995
0.999951
0.999941
0.999951
0.999965
0.999954
0.999957
0.99997
0.999975
0.999977
0.999973
0.999977
0.999976
0.999985
0.99999
0.999963
0.999872
0.999851
0.999881
0.999896
0.999851
0.999855
0.999925
0.999885
0.999847
0.999926
0.999938
0.999885
0.999916
0.99997
0.99993
0.9999
0.999966
0.999976
0.999903
0.999923
1
0.999945
0.999884
0.999973
0.999993
0.999896
0.99992
1.00001
0.999943
0.999889
0.999969
0.999985
0.99991
0.999924
0.99999
0.999955
0.999917
0.999974
0.999997
0.999947
0.99996
1.00003
0.999993
0.999959
1.00002
1.00002
0.999983
0.999995
1.00002
1.00001
0.999821
0.999811
0.999797
0.999809
0.999819
0.999806
0.999801
0.999842
0.999857
0.999836
0.999864
0.999893
0.999901
0.999905
0.999921
0.999944
0.999928
0.999935
0.999958
0.999939
0.999928
0.999951
0.999952
0.999934
0.999941
0.999952
0.99995
0.999934
0.999944
0.999961
0.999945
0.999932
0.999958
0.999958
0.999939
0.999966
0.999981
0.999978
0.999985
1.00001
1.00003
1.00001
1.00003
1.00006
1.00005
1.00004
1.00006
1.00006
1.00005
1.00004
0.999705
0.999736
0.999684
0.999646
0.999721
0.999725
0.999673
0.999735
0.999769
0.999752
0.999779
0.99984
0.999854
0.999832
0.999904
0.999946
0.999898
0.999902
0.999975
0.999956
0.999899
0.999952
0.999984
0.999924
0.999912
0.999975
0.999965
0.999906
0.999935
0.999987
0.999932
0.999912
0.999982
0.999984
0.999936
0.999975
1.00004
1.00001
1.00002
1.00008
1.0001
1.00008
1.00011
1.00016
1.00011
1.00011
1.00017
1.00015
1.0001
1.00013
0.999543
0.99952
0.999516
0.999516
0.999471
0.999511
0.999556
0.999537
0.999575
0.99963
0.999649
0.999691
0.999733
0.999797
0.999816
0.999837
0.999897
0.999924
0.999902
0.999915
0.999969
0.999942
0.999909
0.999962
0.999975
0.999911
0.999928
0.999981
0.999941
0.999915
0.999974
0.999979
0.999951
0.999979
1.00004
1.00004
1.00005
1.00012
1.00014
1.00017
1.00018
1.00023
1.00025
1.00022
1.00027
1.0003
1.00025
1.00026
1.00026
1.00024
0.999352
0.999188
0.99921
0.999269
0.999181
0.999221
0.999262
0.999278
0.999303
0.999381
0.999443
0.999455
0.999546
0.999646
0.999684
0.999728
0.999807
0.999875
0.999862
0.999894
0.999952
0.999934
0.99991
0.999944
0.999968
0.99992
0.999936
0.999973
0.999954
0.99993
0.999978
1.00001
0.999994
1.00005
1.00011
1.00015
1.00017
1.00024
1.00031
1.00031
1.00035
1.00041
1.00042
1.00043
1.00046
1.00049
1.00042
1.00046
1.00049
1.00037
0.998947
0.998907
0.998863
0.998855
0.998848
0.998879
0.998875
0.998938
0.998979
0.99903
0.999077
0.999215
0.999283
0.999309
0.999476
0.999595
0.999637
0.999699
0.999851
0.999875
0.999828
0.999922
0.99998
0.999914
0.999885
0.999999
0.999963
0.9999
0.999957
1.00004
0.999989
1
1.00014
1.00018
1.0002
1.00029
1.00042
1.00042
1.00045
1.00057
1.00058
1.00061
1.00064
1.00069
1.00067
1.00069
1.00071
1.00069
1.00065
1.00065
0.998494
0.998596
0.998476
0.998469
0.998492
0.998539
0.998495
0.998544
0.998626
0.998653
0.998698
0.99881
0.998903
0.999009
0.999105
0.999287
0.999399
0.999509
0.999641
0.999753
0.999808
0.999846
0.999918
0.999912
0.999929
0.999946
0.999965
0.999955
1.00002
1.00004
1.00009
1.00017
1.00026
1.00035
1.00042
1.00055
1.0006
1.00067
1.00072
1.00079
1.00082
1.00083
1.00089
1.00092
1.00089
1.00092
1.00094
1.00094
1.00085
1.00094
0.998194
0.998197
0.998136
0.99825
0.998218
0.998225
0.998259
0.998284
0.998251
0.998353
0.998418
0.998376
0.998511
0.998653
0.998728
0.998813
0.999077
0.999256
0.999307
0.999514
0.999717
0.999751
0.999773
0.999914
0.99997
0.999895
0.99995
1.00008
1.00008
1.0001
1.00026
1.00042
1.00043
1.00056
1.00075
1.00078
1.00082
1.00091
1.00101
1.00095
1.001
1.00109
1.00105
1.00106
1.00112
1.00112
1.00108
1.00117
1.00115
1.00113
0.99792
0.997964
0.998032
0.998159
0.998089
0.998101
0.998213
0.998209
0.998158
0.998176
0.998211
0.998235
0.998205
0.998292
0.998392
0.998471
0.998622
0.998799
0.999037
0.999203
0.999399
0.999587
0.999701
0.999822
0.999863
0.999983
1.00001
1.00011
1.0002
1.00034
1.00047
1.00057
1.00076
1.00086
1.00094
1.00099
1.00105
1.00111
1.00108
1.00112
1.00115
1.00116
1.00115
1.00115
1.00124
1.00125
1.00121
1.00127
1.00133
1.00134
0.997754
0.997999
0.998034
0.998055
0.998144
0.998242
0.998191
0.998185
0.998297
0.998229
0.998175
0.998228
0.998194
0.9981
0.998134
0.998262
0.998217
0.99837
0.99863
0.998837
0.998989
0.999264
0.999576
0.999611
0.999799
0.999999
1.00017
1.00017
1.00043
1.00063
1.00071
1.00085
1.00103
1.00113
1.00105
1.00117
1.00121
1.00114
1.00114
1.00122
1.0012
1.00116
1.00128
1.00128
1.00124
1.0013
1.00139
1.00137
1.00137
1.00153
0.997841
0.998047
0.998017
0.998024
0.998152
0.998203
0.998203
0.998228
0.99834
0.99834
0.998297
0.998282
0.998293
0.998234
0.998154
0.998044
0.998139
0.99812
0.998188
0.998401
0.998648
0.99891
0.999138
0.999503
0.999741
0.999972
1.00018
1.0005
1.00064
1.00084
1.001
1.00115
1.00118
1.00115
1.00128
1.0012
1.00117
1.00119
1.00124
1.00125
1.00125
1.00128
1.00137
1.00138
1.00141
1.00142
1.0015
1.0015
1.00146
1.00156
0.998011
0.997964
0.997962
0.998089
0.998029
0.997978
0.998157
0.998241
0.998155
0.998246
0.998433
0.998383
0.998311
0.998456
0.998304
0.998181
0.998131
0.998113
0.997989
0.998061
0.998342
0.998518
0.998779
0.999243
0.999653
0.999922
1.0003
1.00069
1.0009
1.001
1.00124
1.00129
1.00121
1.00124
1.00125
1.00122
1.00114
1.00132
1.0013
1.00126
1.00143
1.0015
1.00143
1.00146
1.00163
1.00157
1.00151
1.00161
1.00162
1.00156
0.998046
0.998038
0.997963
0.997986
0.997954
0.997939
0.997957
0.998002
0.998029
0.998079
0.998197
0.998297
0.998351
0.998353
0.998475
0.998431
0.998251
0.998141
0.998119
0.998008
0.997971
0.998227
0.998624
0.9989
0.999407
0.999983
1.00045
1.0007
1.00105
1.00131
1.00127
1.00125
1.0013
1.00128
1.00119
1.00122
1.00139
1.00137
1.00142
1.00151
1.00157
1.00157
1.00162
1.00162
1.00163
1.00162
1.00164
1.00164
1.00161
1.00165
0.998079
0.998248
0.998072
0.997965
0.998048
0.998091
0.997909
0.997815
0.99805
0.99796
0.997872
0.998059
0.998263
0.998227
0.998346
0.998516
0.998475
0.998296
0.998299
0.998173
0.998025
0.998147
0.998394
0.998818
0.999216
0.999935
1.00035
1.00078
1.00107
1.00125
1.00123
1.0012
1.00132
1.00124
1.00126
1.00142
1.0015
1.00146
1.00159
1.00171
1.00163
1.00153
1.00174
1.00166
1.00155
1.00158
1.0017
1.0016
1.00151
1.00168
0.998256
0.998201
0.998124
0.998249
0.998147
0.998087
0.998128
0.99803
0.997968
0.99793
0.997927
0.997886
0.997928
0.998103
0.998154
0.998285
0.99846
0.998612
0.998354
0.998387
0.998435
0.9983
0.998404
0.998759
0.999364
0.999585
1.00024
1.00069
1.00093
1.00096
1.00116
1.00133
1.00114
1.00133
1.0015
1.00156
1.00156
1.00168
1.00169
1.00161
1.00165
1.00165
1.0016
1.00154
1.00165
1.00158
1.00153
1.00163
1.00161
1.00156
0.998246
0.998021
0.998068
0.998238
0.99808
0.997944
0.998188
0.998151
0.997986
0.997928
0.998083
0.997895
0.997729
0.997901
0.99805
0.997968
0.998246
0.998437
0.998623
0.99858
0.998689
0.99874
0.998734
0.99899
0.999212
0.999631
0.999929
1.00038
1.00058
1.00085
1.00108
1.00115
1.00136
1.0015
1.00169
1.00159
1.00168
1.00179
1.00166
1.00154
1.00169
1.00167
1.00158
1.00156
1.00177
1.00166
1.00158
1.00168
1.00174
1.00157
0.99792
0.998051
0.997964
0.997788
0.997955
0.998015
0.997952
0.997963
0.998163
0.998066
0.99799
0.998039
0.998018
0.997824
0.997781
0.998027
0.997987
0.998205
0.998606
0.998875
0.998908
0.99918
0.999381
0.999247
0.999251
0.999596
0.99975
0.999788
1.00024
1.00067
1.00085
1.00112
1.0015
1.00165
1.00154
1.00176
1.00174
1.00155
1.00159
1.00169
1.00162
1.00154
1.00174
1.00173
1.00164
1.00168
1.00186
1.00168
1.00163
1.00177
0.997697
0.997903
0.997824
0.99766
0.997849
0.997934
0.997845
0.997829
0.998051
0.998107
0.99796
0.998057
0.998147
0.997958
0.997809
0.997902
0.997998
0.998044
0.998378
0.998888
0.999285
0.999516
0.999707
0.999703
0.999651
0.999386
0.999418
0.999603
0.999917
1.0003
1.00073
1.00124
1.00149
1.00154
1.00166
1.00173
1.00164
1.00154
1.00165
1.00172
1.00161
1.00165
1.0018
1.00174
1.00169
1.00172
1.00186
1.00173
1.00171
1.00183
0.997805
0.99755
0.997735
0.997951
0.997819
0.997612
0.997949
0.997884
0.997697
0.997834
0.998126
0.997953
0.997942
0.99817
0.998131
0.997832
0.997962
0.998207
0.998362
0.998728
0.999474
0.999826
0.999878
1.00012
0.999864
0.999451
0.999234
0.999516
0.999636
0.99997
1.00072
1.0011
1.00126
1.00153
1.00172
1.00151
1.00151
1.00177
1.00174
1.00156
1.00182
1.00191
1.00172
1.00166
1.00198
1.00178
1.00165
1.00182
1.00198
1.00169
0.997683
0.997585
0.997774
0.997831
0.997807
0.997631
0.99785
0.997808
0.99773
0.997709
0.997903
0.997951
0.997909
0.998049
0.998204
0.998176
0.998109
0.998382
0.998572
0.998943
0.999328
0.999913
1.00027
1.00006
0.999952
0.999668
0.999495
0.999199
0.999461
1
1.00034
1.00076
1.00108
1.00141
1.00143
1.00149
1.00167
1.00175
1.0017
1.00176
1.00188
1.00182
1.00181
1.00179
1.00194
1.00182
1.00185
1.00182
1.00194
1.00185
0.997446
0.997867
0.997831
0.997425
0.997795
0.997944
0.99771
0.99762
0.998001
0.997879
0.997578
0.997842
0.998042
0.997883
0.997968
0.998414
0.998508
0.998368
0.998897
0.999229
0.999409
0.99975
1.00014
1.00019
0.999883
0.999967
0.999561
0.999396
0.99958
0.999822
1.00002
1.00041
1.00107
1.00109
1.00125
1.0017
1.00178
1.00162
1.0018
1.00202
1.00175
1.00166
1.00201
1.00192
1.00171
1.00184
1.00218
1.0018
1.00177
1.00209
0.997848
0.997798
0.997833
0.997735
0.997879
0.997857
0.997976
0.99785
0.997922
0.997968
0.99789
0.997761
0.997873
0.998027
0.998033
0.99826
0.998696
0.999036
0.999104
0.99947
0.999699
0.999753
0.99978
0.99998
1.00017
0.999814
0.999837
0.999804
0.99963
0.99953
0.999802
1.00027
1.00042
1.00088
1.00139
1.00159
1.00161
1.0018
1.00191
1.00177
1.00178
1.00186
1.00187
1.00175
1.00192
1.00183
1.0019
1.00187
1.00195
1.00181
0.998086
0.997492
0.997816
0.998053
0.997817
0.99747
0.997958
0.997952
0.99759
0.997702
0.998061
0.997846
0.997574
0.99801
0.998194
0.998216
0.99869
0.999353
0.999618
0.999572
0.999874
0.999797
0.999579
0.999759
0.999948
1.00005
1.00007
1.00008
0.999693
0.999516
0.999765
0.999801
1.00014
1.00083
1.00134
1.0014
1.00163
1.00207
1.00185
1.00171
1.00206
1.00214
1.00185
1.00186
1.00228
1.00197
1.00177
1.00197
1.00225
1.00176
0.997698
0.997801
0.997873
0.997484
0.997752
0.997757
0.997541
0.997557
0.997825
0.997764
0.997653
0.997934
0.998033
0.997873
0.998154
0.998624
0.998875
0.999285
0.999905
1.0001
0.999752
0.999697
0.999693
0.999524
0.999678
1.0002
1.00035
1.00005
0.999952
0.999828
0.999409
0.99955
1.00018
1.00063
1.0009
1.00144
1.0018
1.00167
1.00179
1.00209
1.00196
1.00186
1.00219
1.00219
1.00197
1.00203
1.00235
1.00193
1.00201
1.00221
0.997608
0.998091
0.997836
0.99731
0.997819
0.997993
0.99761
0.99745
0.998007
0.997949
0.997553
0.997847
0.99826
0.99808
0.998109
0.99882
0.999252
0.999445
0.999872
1.00023
0.999975
0.999637
0.999606
0.999538
0.999718
1.00006
1.00028
1.00026
1.00016
0.999772
0.999403
0.999635
1.00002
1.00021
1.00075
1.00151
1.00158
1.00153
1.00192
1.00216
1.00182
1.0018
1.00225
1.00209
1.00184
1.00198
1.00242
1.00199
1.00185
1.00225
0.99804
0.997272
0.997517
0.997947
0.997688
0.99733
0.997878
0.997883
0.997401
0.997583
0.997841
0.997638
0.997587
0.99824
0.998548
0.998623
0.999291
0.999836
0.999862
0.999816
1.00007
0.999814
0.999407
0.999647
0.999832
0.99991
1.00014
1.0005
1.00018
0.999785
0.999907
0.999748
0.999659
1.00018
1.00093
1.00109
1.00139
1.00211
1.00209
1.00187
1.00219
1.0024
1.00192
1.00194
1.00248
1.00211
1.00187
1.00231
1.00257
1.00183
0.997669
0.997147
0.997551
0.997832
0.997598
0.997266
0.997751
0.997843
0.997483
0.997375
0.997829
0.997894
0.997732
0.9982
0.998897
0.99918
0.999416
0.99995
1.00003
0.999853
0.999743
0.999839
0.999767
0.999666
0.999868
0.999866
1.00015
1.00019
1.00016
1.00022
0.999983
0.999642
0.999651
1.00015
1.00039
1.00072
1.00142
1.00188
1.00178
1.00192
1.00235
1.00224
1.00202
1.00213
1.00246
1.00218
1.00207
1.00223
1.00255
1.0022
0.996896
0.997898
0.997753
0.996846
0.997597
0.998005
0.997288
0.997164
0.998037
0.997803
0.997248
0.997934
0.998393
0.998203
0.998564
0.999677
0.999819
0.999518
0.999919
0.999833
0.999519
0.999593
0.999974
0.999927
0.999705
1.00006
0.999967
0.999946
1.00038
1.00049
1.00011
0.999875
1.00017
0.999874
0.999939
1.00102
1.00145
1.00129
1.00179
1.0025
1.00198
1.00179
1.00263
1.0025
1.00184
1.00225
1.00293
1.00205
1.00192
1.00284
0.997489
0.997588
0.997498
0.997206
0.997521
0.99753
0.997478
0.997363
0.997643
0.997803
0.997678
0.997678
0.998212
0.998576
0.99886
0.999349
0.999901
0.999899
0.999547
0.9996
0.999591
0.999696
0.999853
1.00003
1.00009
0.999782
0.999828
1.00007
1.00029
1.00041
1.00035
1.00039
0.999923
0.999762
1.00028
1.00075
1.00105
1.0015
1.00207
1.00208
1.00202
1.00225
1.00239
1.00228
1.00239
1.00235
1.0025
1.00239
1.00234
1.00221
0.997904
0.99662
0.997082
0.998158
0.997329
0.996572
0.997838
0.998044
0.996918
0.997231
0.998274
0.997928
0.997613
0.99892
0.999656
0.999468
0.999656
1.00018
0.999765
0.999235
0.999698
0.999809
0.999795
1.00015
1.00013
0.999836
0.999751
1.00011
1.00017
1.0003
1.00079
1.0003
0.99974
1.00005
1.00024
1.00005
1.00075
1.00206
1.00184
1.00158
1.00258
1.00284
1.00183
1.00205
1.00319
1.0025
1.0018
1.00277
1.00317
1.00197
0.997212
0.997397
0.997638
0.997218
0.997507
0.997552
0.997402
0.997456
0.997609
0.997463
0.997516
0.99816
0.998435
0.998686
0.999608
0.99996
0.999798
0.999551
0.999642
0.999514
0.999292
0.999708
0.999972
0.999925
0.999942
1.00001
1.00003
0.999925
1.00018
1.00074
1.00062
1.00041
1.00043
1.00011
0.999823
1.00016
1.00107
1.00134
1.0016
1.00233
1.00234
1.00216
1.00248
1.00257
1.00225
1.00244
1.00284
1.00224
1.00245
1.00284
0.996745
0.998365
0.99769
0.996401
0.997514
0.998271
0.997061
0.996598
0.99806
0.997856
0.997029
0.997971
0.999137
0.99907
0.99907
1.00013
0.999988
0.999388
0.999376
0.999633
0.999575
0.999621
0.999983
0.999926
0.99986
1.0001
1.00004
0.999954
1.00034
1.00048
1.00046
1.00067
1.00069
1.00002
0.999742
1.00073
1.00078
1.00072
1.00182
1.00269
1.00199
1.00189
1.00322
1.00281
1.00178
1.00251
1.00343
1.00234
1.00179
1.00321
0.998108
0.996742
0.996965
0.99796
0.997291
0.996815
0.99763
0.997661
0.996939
0.997582
0.998219
0.998025
0.998263
0.999585
0.999888
0.999447
0.999808
0.999873
0.999437
0.999369
0.999814
0.999835
0.999589
0.999874
1.0001
0.99989
1.00004
1.00036
1.0002
1.0002
1.00067
1.00076
1.00031
1.00024
1.00055
1.00013
1.00031
1.00158
1.00186
1.00157
1.00229
1.00304
1.00223
1.00231
1.00326
1.00263
1.00197
1.0031
1.00336
1.00189
0.997852
0.996281
0.997215
0.998345
0.997275
0.996336
0.997702
0.99801
0.996968
0.997162
0.998634
0.99837
0.998278
0.99949
1.00018
0.999615
0.999356
0.999882
0.999547
0.999333
0.999692
0.999808
0.999642
0.999709
0.999916
1
1.00029
1.0004
1.00021
1.00033
1.00075
1.0006
1.00032
1.00079
1.00051
0.999891
1.00048
1.0016
1.00151
1.00135
1.00272
1.00293
1.002
1.00242
1.00353
1.0027
1.00194
1.00284
1.00362
1.00246
0.996014
0.998362
0.997747
0.995876
0.997228
0.998272
0.996573
0.996497
0.998068
0.997846
0.996961
0.998561
0.999593
0.999265
0.999338
1.00016
0.999899
0.999128
0.999575
0.999836
0.999554
0.999523
0.999746
0.999657
0.999707
1.00022
1.00037
1.00026
1.00047
1.00059
1.00031
1.00052
1.00109
1.00047
1.00006
1.00074
1.00087
1.00043
1.00138
1.003
1.00213
1.00182
1.00348
1.00342
1.00173
1.00291
1.00426
1.00231
1.00182
1.00423
0.996991
0.997936
0.997231
0.996314
0.997418
0.997925
0.997071
0.996733
0.997759
0.998007
0.9976
0.9984
0.999748
0.999685
0.999509
0.999843
0.999874
0.999467
0.999412
0.999794
0.999745
0.999533
0.999614
0.999772
0.999894
1.00006
1.0002
1.00041
1.00056
1.00035
1.00029
1.00075
1.00086
1.00048
1.00046
1.00079
1.00053
1.00043
1.00166
1.00238
1.00197
1.0023
1.00321
1.00289
1.00234
1.00281
1.00354
1.00303
1.00252
1.00294
0.998658
0.995225
0.996199
0.999154
0.996898
0.995272
0.998087
0.998314
0.996147
0.996869
0.998951
0.99869
0.998256
1.00011
1.00032
0.999251
0.999309
0.999911
0.999584
0.999239
0.999738
0.999668
0.999351
0.999721
1.00002
0.999959
1.00027
1.00071
1.00044
1.0003
1.00083
1.00064
1.00036
1.00099
1.00118
1.00011
1.00017
1.00195
1.00156
1.00104
1.00305
1.00392
1.00179
1.00208
1.00485
1.00325
1.00115
1.00417
1.00492
1.0016
0.996632
0.99659
0.997411
0.997059
0.997017
0.997058
0.99712
0.997532
0.99728
0.997452
0.998125
0.998919
0.999366
0.999703
1.00012
0.999881
0.999629
0.999614
0.999705
0.999732
0.999518
0.999458
0.999581
0.99975
0.999896
1.00011
1.00036
1.00046
1.00051
1.00058
1.00049
1.00046
1.00066
1.00088
1.00067
1.00041
1.0008
1.00106
1.0013
1.00198
1.00262
1.00273
1.0026
1.00314
1.00298
1.00315
1.00353
1.00271
1.00348
1.00408
0.99486
0.999685
0.997615
0.994114
0.997145
0.999225
0.995997
0.995493
0.998852
0.9983
0.996764
0.998571
1.00033
0.999606
0.999264
1.00038
0.999934
0.998982
0.999461
0.999886
0.999353
0.999146
0.999605
0.999696
0.999793
1.00028
1.0004
1.0004
1.00086
1.00077
1.00018
1.00054
1.00129
1.00063
1.00025
1.00139
1.00114
1.00012
1.00161
1.00348
1.00196
1.00135
1.00459
1.00424
1.00111
1.00328
1.00607
1.00268
1.00109
1.00562
0.998588
0.995908
0.996283
0.997961
0.996889
0.996178
0.997362
0.997855
0.996767
0.997699
0.998607
0.998797
0.999089
0.999994
1.00037
0.999712
0.999582
0.999727
0.999575
0.999408
0.999415
0.999483
0.999537
0.999765
1.00002
1.00018
1.00036
1.00053
1.00054
1.00056
1.0006
1.00058
1.00057
1.00086
1.00106
1.0006
1.00074
1.00147
1.00172
1.00172
1.00246
1.00349
1.00241
1.0028
1.00422
1.00342
1.0022
1.00453
1.0049
1.00154
0.998533
0.993563
0.995854
0.99998
0.996261
0.994091
0.998054
0.998459
0.996016
0.996867
0.99954
0.999012
0.998501
1.00032
1.00078
0.999586
0.999404
1.00004
0.999584
0.999073
0.999423
0.999515
0.999403
0.999719
1.00008
1.00023
1.00055
1.00072
1.00039
1.00044
1.00094
1.00054
1.00014
1.00108
1.00139
1.00024
1.00049
1.00231
1.00172
1.00083
1.00336
1.00436
1.00183
1.00216
1.00614
1.00414
1.00081
1.00497
1.0067
1.00247
0.99366
0.999546
0.99807
0.99371
0.99701
0.999067
0.995991
0.995808
0.998359
0.998576
0.997321
0.99897
1.00053
0.999952
0.999672
1.00019
0.999983
0.999133
0.99922
0.999458
0.999071
0.99912
0.99962
0.99973
0.99988
1.00045
1.00068
1.00053
1.00068
1.00073
1.00041
1.00068
1.00109
1.00066
1.00063
1.00136
1.00129
1.00056
1.00178
1.00334
1.00201
1.00187
1.00437
1.00438
1.00133
1.00364
1.00711
1.00229
1.00144
1.00811
0.995867
1.00019
0.996313
0.993073
0.997096
0.998655
0.995745
0.995607
0.998314
0.998063
0.997375
0.999155
1.00049
0.99992
0.999807
1.0005
1.00005
0.999297
0.999448
0.999354
0.99892
0.999256
0.999919
0.999904
1.00003
1.00058
1.00065
1.00035
1.00062
1.00072
1.00027
1.00044
1.00105
1.00062
1.00038
1.00145
1.00156
1.00064
1.00171
1.00348
1.00248
1.00182
1.00461
1.00475
1.00171
1.0034
1.00737
1.00415
1.00179
1.00543
1.00059
0.989093
0.994131
1.0017
0.996471
0.993188
0.997879
0.999161
0.99579
0.996827
0.999886
0.999678
0.999012
1.00064
1.0012
0.999613
0.999217
0.999736
0.999229
0.998559
0.998911
0.999363
0.999462
0.999838
1.00026
1.00047
1.00077
1.0008
1.00035
1.00049
1.00104
1.00065
1.00023
1.00112
1.00148
1.00027
1.00084
1.00266
1.00188
1.00087
1.00365
1.0049
1.00117
1.00231
1.00728
1.00425
0.999164
1.00733
1.01096
0.998667
0.994199
0.993583
0.996226
0.997927
0.995323
0.995893
0.99726
0.997102
0.996317
0.997971
0.998862
0.999172
0.999836
1.00091
1.00062
0.999915
0.999784
0.999577
0.99891
0.998769
0.999081
0.999256
0.999539
1.00019
1.00054
1.00056
1.00067
1.0008
1.00044
1.00027
1.00068
1.00076
1.00034
1.00069
1.00125
1.00089
1.0008
1.00216
1.00252
1.00199
1.00263
1.00434
1.00321
1.00268
1.00468
1.00559
1.0026
1.00462
1.00805
1.00854
0.993108
1.00751
0.996902
0.9903
0.997309
1.00052
0.994894
0.994972
0.999106
0.99851
0.996838
0.999286
1.00138
1.00039
1.0002
1.00103
1.00014
0.998679
0.998731
0.998917
0.998398
0.998798
0.999758
1.00006
1.00035
1.00101
1.00079
1.00045
1.00086
1.0007
0.999928
1.00059
1.00139
1.00035
1.00006
1.0019
1.00177
1.00008
1.00223
1.00473
1.00182
1.00089
1.00634
1.00557
0.998732
1.00453
1.01181
1.00093
0.996374
1.02312

VECTORS velocity double
4.08386e-07 2.32421e-06 0
2.09801e-07 2.51545e-06 0
-3.01784e-06 2.28723e-06 0
-6.30219e-06 2.95434e-06 0
-2.26414e-07 3.98628e-07 0
-2.40475e-06 3.30607e-06 0
-5.09406e-06 2.65683e-06 0
-2.05586e-06 -8.4286e-07 0
8.6853e-07 2.26409e-06 0
-6.86453e-06 2.60924e-06 0
-6.17232e-06 -4.83624e-06 0
6.84334e-07 3.06598e-06 0
-4.858e-06 4.93521e-06 0
-1.03306e-05 -3.46914e-06 0
3.05085e-07 -2.88355e-06 0
-1.41285e-06 5.80687e-06 0
-9.09393e-06 1.45909e-06 0
-3.05411e-06 -2.34346e-06 0
-2.05693e-06 -1.23463e-06 0
-1.08764e-05 2.55603e-06 0
-8.16062e-06 1.48361e-07 0
-5.19531e-06 -1.42584e-06 0
-1.03331e-05 -1.97317e-06 0
-1.13124e-05 1.81383e-06 0
-8.50803e-06 3.88773e-07 0
-9.25477e-06 -5.60345e-07 0
-1.14428e-05 -1.58677e-06 0
-9.7797e-06 1.77882e-06 0
-6.12401e-06 1.21052e-06 0
-8.85331e-06 -1.94304e-07 0
-1.03183e-05 -2.59206e-06 0
-2.79502e-06 1.35614e-06 0
-3.76128e-06 2.01235e-06 0
-8.5797e-06 -2.0473e-06 0
-1.80002e-06 -4.80663e-06 0
-4.5564e-07 3.28376e-06 0
-9.62071e-06 2.4489e-06 0
-4.80481e-06 -4.47524e-06 0
2.66757e-08 -1.63599e-06 0
-6.1611e-06 4.34309e-06 0
-6.5369e-06 -2.7662e-06 0
4.56716e-07 -1.35204e-06 0
-2.02887e-06 1.24378e-06 0
-4.98846e-06 -2.81548e-06 0
-1.94787e-06 -2.85624e-06 0
4.86154e-08 2.3553e-07 0
-5.84452e-06 -2.82477e-06 0
-2.64352e-06 -1.98769e-06 0
9.23392e-07 -2.33951e-06 0
5.16973e-07 -2.06262e-06 0
-9.28784e-07 7.63015e-06 0
-5.38595e-06 3.21471e-06 0
-2.10601e-06 8.93026e-06 0
-1.19306e-06 4.71389e-06 0
-5.0903e-06 -1.22806e-08 0
-6.2401e-06 1.48433e-05 0
-3.51734e-06 5.11746e-06 0
-7.53238e-06 -5.95897e-06 0
-2.80988e-06 8.79741e-06 0
-8.57158e-07 1.04703e-05 0
-8.14162e-06 -1.24445e-05 0
-6.95452e-06 -1.75725e-06 0
3.25676e-06 1.26147e-05 0
-3.9163e-06 -3.62492e-06 0
-1.11459e-05 -9.81221e-06 0
-2.18129e-06 8.93435e-06 0
-2.16699e-06 -1.17896e-07 0
-1.00809e-05 -5.05963e-06 0
-5.92541e-06 1.86458e-06 0
-5.45377e-06 -7.3604e-07 0
-1.04576e-05 -3.66494e-06 0
-6.82566e-06 3.32081e-06 0
-5.96419e-06 -2.98216e-06 0
-1.02842e-05 -1.4892e-06 0
-7.26741e-06 1.7314e-06 0
-6.83742e-06 -4.23919e-07 0
-9.91132e-06 -3.70132e-07 0
-6.54104e-06 2.93464e-06 0
-6.74114e-06 -1.20653e-06 0
-9.82676e-06 2.83562e-06 0
-5.568e-06 -9.33232e-08 0
-5.859e-06 -1.23645e-07 0
-9.04557e-06 5.07502e-06 0
-2.25778e-06 -7.78531e-07 0
-2.33782e-06 -7.27181e-06 0
-9.69641e-06 9.84591e-06 0
-3.27632e-06 2.48885e-06 0
2.25454e-06 -1.12995e-05 0
-6.37728e-06 2.77233e-06 0
-6.98787e-06 1.11952e-05 0
-1.33397e-06 -9.76044e-06 0
-3.22403e-06 -7.57585e-06 0
-6.61862e-06 6.17179e-06 0
-3.26158e-06 -4.80267e-06 0
-6.38431e-06 -1.38665e-05 0
-4.80334e-06 7.36539e-07 0
-4.94522e-07 -4.2737e-06 0
-2.46817e-06 -8.00078e-06 0
-5.4173e-06 -2.76914e-06 0
-9.74594e-07 -6.49108e-06 0
2.42266e-06 1.25351e-05 0
4.32536e-07 1.05021e-05 0
3.98586e-06 1.32049e-05 0
-1.41736e-06 1.30102e-05 0
-3.16191e-06 1.00747e-05 0
-2.57133e-06 1.07201e-05 0
6.80886e-06 1.38362e-05 0
-1.0432e-06 1.02867e-05 0
-1.04481e-05 -3.90373e-06 0
5.57808e-06 1.15516e-05 0
1.04265e-05 1.04674e-05 0
-7.69298e-06 -8.53081e-06 0
8.61637e-07 9.50295e-07 0
1.52894e-05 9.98406e-06 0
4.52308e-06 -5.53291e-06 0
-1.37415e-06 -1.8542e-06 0
1.11235e-05 3.99987e-06 0
9.9099e-06 -2.37278e-06 0
1.84429e-06 -1.03793e-06 0
8.01297e-06 1.77796e-06 0
1.23849e-05 -1.88203e-06 0
7.32046e-06 1.45333e-06 0
9.86868e-06 4.27515e-07 0
1.42697e-05 2.42368e-07 0
1.06154e-05 9.75834e-07 0
1.09431e-05 -7.16479e-07 0
1.44464e-05 -3.71459e-07 0
9.72289e-06 6.69522e-07 0
7.86763e-06 -1.46143e-06 0
1.27673e-05 1.40828e-06 0
7.58557e-06 1.73244e-07 0
2.16112e-06 1.44211e-06 0
1.05149e-05 1.52133e-06 0