# vtk DataFile Version 4.0
SiwiRVisFile
ASCII
DATASET STRUCTURED_POINTS
DIMENSIONS 25 25 1
ORIGIN 0 0 0
SPACING 1 1 1
POINT_DATA 625

SCALARS flags double 1
LOOKUP_TABLE default
1
1
1
1
1
1
1
1
1
1
1
1
1
1
1
1
1
1
1
1
1
1
1
1
1
1
1
1
1
1
1
1
1
1
1
1
1
1
1
1
1
1
1
1
1
1
1
1
1
1
1
1
1
1
1
1
1
1
1
1
1
1
1
1
1
1
1
1
1
1
1
1
1
1
1
1
1
1
1
1
1
1
1
1
1
1
1
1
1
1
1
1
1
1
1
1
1
1
1
1
1
1
1
1
1
1
1
1
1
1
1
1
1
1
1
1
1
1
1
1
1
1
1
1
1
1
1
1
1
1
1
1
1
1
1
1
1
1
1
1
1
1
1
1
1
1
1
1
1
1
1
1
1
1
1
1
1
1
1
1
1
1
1
1
1
1
1
1
1
1
1
1
1
1
1
1
1
1
1
1
1
1
1
1
1
1
1
1
1
1
1
1
1
1
1
1
1
1
1
1
1
1
1
1
1
1
1
1
1
1
1
1
1
1
1
1
1
1
1
1
1
1
1
1
1
1
1
1
1
1
1
1
1
1
1
1
1
1
1
1
1
1
1
1
1
1
1
1
1
1
1
1
1
1
1
1
1
1
1
1
1
1
1
1
1
1
1
1
1
1
1
1
1
1
1
1
1
1
1
1
1
1
1
1
1
1
1
1
1
1
1
1
1
1
1
1
1
1
1
1
1
1
1
1
1
1
1
1
1
1
1
1
1
1
1
1
1
1
1
1
1
1
1
1
1
1
1
1
1
1
1
1
1
1
1
1
1
1
1
1
1
1
1
1
1
1
1
1
1
1
1
1
1
1
1
1
1
1
1
1
1
1
1
1
1
1
1
1
1
1
1
1
1
1
1
1
1
1
1
1
1
1
1
1
1
1
1
1
1
1
1
1
1
1
1
1
1
1
1
1
1
1
1
1
1
1
1
1
1
1
1
1
1
1
1
1
1
1
1
1
1
1
1
1
1
1
1
1
1
1
1
1
1
1
1
1
1
1
1
1
1
1
1
1
1
1
1
1
1
1
1
1
1
1
1
1
1
1
1
1
1
1
1
1
1
1
1
1
1
1
1
1
1
1
1
1
1
1
1
1
1
1
1
1
1
1
1
1
1
1
1
1
1
1
1
1
1
1
1
1
1
1
1
1
1
1
1
1
1
1
1
1
1
1
1
1
1
1
1
1
1
1
1
1
1
1
1
1
1
1
1
1
1
1
1
1
1
1
1
1
1
1
1
1
1
1
1
1
1
1
1
1
1
1
1
1
1
1
1
1
1
1
1
1
1
1
1
1
1
1
1
1
1
1
1
1
1
1
1
1
1
1
1
1
1
1
1
1
1
1
1
1
1
1
1
1
1
1
1
1
1
1
1
1
1
1
1
1
1
1
1
1
1
1
1
1
1
1
1
1
1
1
1
1
1

SCALARS density double 1
LOOKUP_TABLE default
0.999718
0.999746
0.999861
0.999742
0.999668
0.999896
0.999904
0.999628
0.999775
1.00008
0.999791
0.999616
1.00005
1.00005
0.999616
0.999847
1.00021
0.999818
0.999681
1.00018
1.00009
0.99966
0.999999
1.00027
0.999806
1.00002
0.999487
0.999661
1.00008
0.999769
0.999555
0.999889
0.999978
0.999705
0.999753
0.999954
0.999892
0.999807
0.999854
0.999911
0.999947
0.999902
0.999827
0.999957
1.00007
0.999895
0.999818
1.00009
1.0001
0.999783
0.999703
0.9999
0.999752
0.999708
0.999881
0.999794
0.99968
0.999925
0.999915
0.999636
0.999869
1.00008
0.999716
0.999726
1.00014
0.999915
0.999617
1.00006
1.00017
0.999646
0.999865
1.00033
0.99987
0.999622
1.00023
0.999573
1.00009
0.999881
0.99946
0.999785
1.00007
0.999747
0.999591
0.999943
0.999998
0.999716
0.999757
0.999997
0.999952
0.999769
0.999843
1.00002
0.99996
0.999825
0.99991
1.00004
0.999998
0.999887
0.999938
1.00005
1.00001
0.999453
0.999702
0.999993
0.999747
0.999678
0.999959
0.999795
0.999679
0.999981
0.999888
0.999683
0.99998
1.00001
0.99968
0.999897
1.00014
0.999732
0.999738
1.00031
0.99999
0.999541
1.00015
1.00036
0.999606
0.999776
0.999373
0.999706
1.00009
0.999823
0.999535
0.999839
1.00007
0.99971
0.999607
0.999998
1.00005
0.999724
0.999766
1.00008
0.999931
0.999688
0.999933
1.00009
0.999869
0.999877
1.00009
0.999988
0.999915
1.00004
0.999212
1.00019
0.999731
1
0.999875
1.00006
0.99952
0.999647
1.00003
0.999804
0.999785
1
0.99984
0.999803
1.00005
0.999878
0.999691
1
1
1
0.999986
1.00046
0.999764
0.99957
1.00045
0.999664
0.999713
0.999419
1
0.999732
0.999914
0.999686
0.99945
0.999873
1.00014
0.999794
0.999691
1.00008
1.00007
0.999637
0.999811
1.00016
1
1
1
1.00009
0.999714
1.00014
1.00022
0.999742
0.999905
0.998528
0.999294
1
0.999497
0.999075
1.00004
0.999958
1
0.999917
1.00005
0.999857
0.999866
0.999935
0.999843
1
0.999986
1
1
1
0.99998
0.999511
1.00031
1.00051
0.999536
0.998916
0.999567
0.999606
1
0.999684
0.999589
0.999396
0.99961
0.999715
0.99971
0.999968
1.00013
0.999761
0.999751
1.00022
0.999952
0.999538
1.00022
1.00041
0.99957
1.00003
1.00066
0.999734
0.99963
1.00061
0.998854
1.00032
0.999288
0.998097
0.999521
1.00027
0.999087
0.999128
1.0002
0.999955
0.999593
0.999867
1.00011
0.999994
0.999911
0.999829
0.999949
1.00024
1.00005
0.999616
1.00023
1.00053
0.999765
0.99959
1.00051
1.00002
0.99852
0.998862
1.00004
0.999092
0.998839
0.999781
1
0.999661
0.999653
1
0.999858
1.00002
1.00007
0.999664
1.00001
1.00044
0.999607
0.99967
1.00081
1.00001
0.999163
1.00065
1.0007
0.999036
0.999421
0.998121
0.999269
1.00028
0.998963
0.998308
0.999592
1.00015
0.99871
1
1.00026
1.00007
0.999734
0.999919
1.00012
1.00005
0.999903
0.99984
1.00011
1.00027
0.999929
0.999775
1.00021
1.00046
0.999823
0.998109
1.00067
0.999575
0.997678
0.999576
1.00039
0.99844
0.998826
0.999825
0.999987
0.999692
0.999997
1
0.999875
1.00021
0.999892
0.999522
1.00056
1.00038
0.998957
1.00025
1.00133
0.999103
0.999078
1.00159
0.999361
0.9999
0.998916
0.998559
0.99944
0.999708
0.998859
0.998821
0.999896
1.00003
0.999571
0.999825
1.00028
0.999971
0.999692
1.00004
1.00018
0.999969
0.999819
1.00012
1.00006
1.00003
1.00029
0.999847
0.999734
1.00053
0.996901
0.998785
1.00134
0.998471
0.997417
1.00052
1
0.999423
0.999343
1.00022
1.00001
0.999767
1.00011
0.999882
0.999987
1.00035
0.999391
0.999653
1.00146
0.999663
0.998359
1.0014
1.00143
0.997939
0.998193
0.999069
0.99959
0.998896
0.999015
0.999143
0.99889
1
0.999713
0.999848
1.00008
1
0.999652
1.00005
1.00032
0.999684
0.999687
1.00028
1.0002
0.999479
1.0003
1.00068
0.999177
1
1.0015
0.997589
1.00212
0.999299
0.996215
0.999961
1.00124
0.997229
1
1.0005
1.00015
0.999116
1.00014
1.00046
0.999624
0.999814
1.00023
0.999718
1.00013
1
0.998147
1.00055
1.00229
0.998483
0.998159
1.0026
1.00091
0.997517
0.998098
1.00057
0.998739
0.997915
0.999922
1
0.999798
0.999983
0.999855
0.999937
1.00016
0.999906
0.999572
1.00024
1.00019
0.999583
1
1.00143
0.999291
0.998433
1.00213
1.00107
0.996967
1
0.99519
0.998858
1.00199
0.99812
0.996942
1.00059
1
0.999157
0.99949
1.00081
0.99967
0.999279
1.00066
1.00031
0.999053
1
1
1
1.00159
0.99972
0.997676
1.00172
1.00239
0.997437
0.995087
1.00221
1.00003
0.995162
0.999353
1.00117
0.997925
0.998528
1.00056
1.00004
0.999862
0.999934
0.999924
0.999681
1.00045
1.0001
1
1
1
1
1
1
1
0.99875
1.00672
0.999015
1.00228
0.997644
0.995684
0.999624
1.00054
0.997992
0.999125
1.00075
0.999805
0.998946
1.00031
1.00095
0.998934
0.99936
1.00148
1
1
1
1
1.00495
1.01078
1.00163
1.00148
1.00794
1.00236
0.989837
0.996716
1.00467
1
0.996452
1.00061
1.00055
0.998469
1.00022
1
0.999863
0.999864
1.00095
0.999118
0.998758
1.00233
0.997757
0.999243
1.00987
1.00588
0.99525
1.00585
1.01463
0.998541
0.993624
0.995885
1.00023
0.99922
0.995742
0.998
0.999678
0.999071
1.00007
1.00211
1.00125
1.00692
1
1.00084
1.00124
0.998381
1
0.999562
1.00344
1.00622
1.00174
1.00085
1.00795
1.00709
1.00397
0.993914
1.00949
0.998637
0.991922
0.999686
1.00068
0.997073
0.998468
1.00131
1.00127
1.00309
1.0083
1.00221
0.994996
0.999835
1.00315
1.00098
1.00645
1.00573
0.995342
1.00265
1.01488
1.00052
0.992959
1.02415

VECTORS velocity double
-1.88735e-08 4.72697e-06 0
-0.000142899 8.4217e-05 0
-0.000264755 6.24353e-06 0
-0.000260602 -1.89796e-05 0
-0.00024782 2.27107e-05 0
-0.000439518 9.78329e-05 0
-0.000547768 -2.05803e-05 0
-0.000488343 -2.65986e-05 0
-0.000495866 4.45576e-05 0
-0.000602241 1.4871e-05 0
-0.000549816 -4.5919e-05 0
-0.000476073 -6.29506e-06 0
-0.00044732 -3.61768e-06 0
-0.000447492 -1.13087e-05 0
-0.000419527 2.40888e-06 0
-0.000409073 -1.05944e-05 0
-0.000369277 -1.07435e-05 0
-0.000398856 2.13698e-05 0
-0.000444122 2.97628e-05 0
-0.000377557 -7.15435e-05 0
-0.000237889 -3.44082e-06 0
-0.000254755 3.22718e-05 0
-0.000213669 -1.62198e-05 0
-9.79872e-05 -4.45026e-05 0
1.21041e-06 1.43193e-05 0
-8.74515e-05 0.000135802 0
-0.000401195 0.000355767 0
-0.000611403 9.09046e-05 0
-0.000771431 4.66614e-05 0
-0.00112308 0.000276042 0
-0.00137545 0.000245065 0
-0.00132245 -1.65863e-05 0
-0.00147708 6.46384e-05 0
-0.00172306 0.00015157 0
-0.00165812 -5.71728e-05 0
-0.00142362 -0.000151098 0
-0.00146278 -8.71764e-07 0
-0.00142324 -9.29248e-05 0
-0.00113711 -0.000137941 0
-0.00103746 3.84641e-05 0
-0.00124847 3.65865e-05 0
-0.00123827 -7.96482e-05 0
-0.00106525 6.59673e-06 0
-0.00106742 6.59384e-05 0
-0.00115555 -0.000184389 0
-0.000905225 -0.000223888 0
-0.000551511 -0.000103581 0
-0.000402474 -0.000114855 0
-0.000304069 -0.000256728 0
-7.65758e-05 -0.000113662 0
-0.000123477 0.000445574 0
-0.000320304 0.000532623 0
-0.000715414 0.000513506 0
-0.00141716 0.000467762 0
-0.00168124 0.000502659 0
-0.00165327 0.000277784 0
-0.00195828 0.000261123 0
-0.00242795 0.000309299 0
-0.00237538 8.50442e-05 0
-0.00227068 -0.000125382 0
-0.00233223 -0.00021316 0
-0.00210147 -0.000207551 0
-0.00175853 -0.000264396 0
-0.00174525 -0.000241087 0
-0.00165125 -2.83281e-05 0
-0.00143483 6.84638e-05 0
-0.00151212 -8.90112e-06 0
-0.00170589 -5.39434e-05 0
-0.00147734 -7.52009e-05 0
-0.00128311 -0.000160705 0
-0.00129888 -0.000449142 0
-0.00100311 -0.000525969 0
-0.000451234 -0.000302841 0
-0.000223829 -0.000308593 0
-8.41184e-05 -0.00031396 0
6.27155e-05 0.000551292 0
-0.000443273 0.00103649 0
-0.001398 0.00124694 0
-0.00181959 0.000853147 0
-0.00164883 0.000447843 0
-0.00186744 0.000552368 0
-0.00243723 0.000724721 0
-0.00275678 0.000548546 0
-0.00279177 3.2685e-05 0
-0.00289938 -0.000138146 0
-0.00284989 -0.000338576 0
-0.00241006 -0.000585253 0
-0.00200318 -0.000474269 0
-0.00191934 -0.00032613 0
-0.00173732 -0.000220842 0
-0.00148836 -2.34746e-05 0
-0.00154336 0.000160416 0
-0.0018268 -7.75457e-06 0
-0.00175631 -0.000293622 0
-0.00137378 -0.000391047 0
-0.00117008 -0.000543912 0
-0.00113137 -0.00089264 0
-0.00070269 -0.000888485 0
-0.000160698 -0.000618367 0
5.83081e-05 -0.000402237 0
-0.000156723 0.000689766 0
-0.00116149 0.00234689 0
-0.00174811 0.00156858 0
-0.00130382 0.000628559 0
-0.00126245 0.00054074 0
-0.00200014 0.00125897 0
-0.0025032 0.00105416 0
-0.00277582 0.000781403 0
-0.0032682 0.000346203 0
-0.0033114 -0.000309115 0
-0.00280279 -0.000729738 0
-0.0025512 -0.000875164 0
-0.00230373 -0.000829354 0
-0.00177124 -0.000634819 0
-0.00148014 -0.000352421 0
-0.00153827 -9.84291e-05 0
-0.00130393 0.000143896 0
-0.00102922 9.70788e-05 0
-0.00129039 -0.000206732 0
-0.00152016 -0.000770136 0
-0.00119052 -0.000693107 0
-0.000929 -0.000895565 0
-0.000793104 -0.00127581 0
-0.000440867 -0.0011642 0
-4.21104e-05 -0.000308447 0
-0.000388218 0.00150196 0
-0.000960405 0.00295762 0
-0.000994956 0.00145026 0
-0.000758685 0.00017607 0
-0.000674714 0.000914317 0
-0.00110259 0.00194141 0
-0.00203877 0.00186515 0
-0.00320399 0.00130723 0
-0.0036709 0.000500581 0
-0.00325976 -0.000632213 0
-0.00265619 -0.00116267 0
-0.0024179 -0.00115849 0
-0.00215573 -0.00121823 0
-0.00169897 -0.00100797 0
-0.00120486 -0.000662993 0
-0.000832444 -0.000335917 0
-0.000599965 -4.29811e-05 0
-0.000483793 5.22126e-05 0
-0.000458812 -5.37066e-05 0
-0.000771767 -0.000499046 0
-0.00103658 -0.000908737 0
-0.000751442 -0.00139465 0
-0.00044792 -0.00137174 0
-0.000537811 -0.00140775 0
-0.000250907 -0.0008078 0
-0.000106116 0.00224863 0
-0.000171164 0.00258546 0
-4.66881e-05 0.00152192 0
0 0 0
-0.000188421 0.00131357 0
-0.000860265 0.00252322 0
-0.00207857 0.00336048 0
-0.00302573 0.00210892 0
-0.00281291 0.000145709 0
-0.00263005 -0.000975737 0
-0.00268529 -0.0014863 0
-0.00222946 -0.00158734 0
-0.00168628 -0.00151085 0
-0.00159252 -0.00136907 0
-0.00127954 -0.00120949 0
-0.000665727 -0.000720975 0
-0.000158715 -0.000375732 0
0 0 0
0 0 0
0 0 0
-0.000483334 -0.00060298 0
-0.000794583 -0.00175916 0
-0.000302665 -0.00149964 0
-5.94531e-05 -0.00113926 0
-2.51922e-05 -0.00113295 0
0.000407128 0.00181414 0
0.00022365 0.00309545 0
-0.000149137 0.00145041 0
0 0 0
-0.000103415 0.00165481 0
-0.00103548 0.00378964 0
-0.00179529 0.00394518 0
-0.00170174 0.00232055 0
-0.0014565 -6.11549e-05 0
-0.00144187 -0.00107088 0
-0.00162188 -0.00148269 0
-0.00177886 -0.00175903 0
-0.0018786 -0.00165447 0
-0.00175027 -0.00176269 0
-0.00123098 -0.00160901 0
-0.000616025 -0.00126338 0
-0.000122423 -0.000810424 0
0 0 0
0 0 0
0 0 0
-4.58308e-05 -0.000399445 0
-0.000429599 -0.00131495 0
-0.000486504 -0.00227493 0
0.000119251 -0.00176578 0
0.000279164 -0.000873294 0
-0.000223979 0.00151761 0
-0.000345974 0.00373557 0
-7.86653e-05 0.00110818 0
0 0 0
-0.000112467 0.00197714 0
-0.00067068 0.00506214 0
-0.000749417 0.00355027 0
-0.000230042 0.00168207 0
0 0 0
-0.000438999 -0.000599371 0
-0.00121807 -0.000985227 0
-0.00194581 -0.0014217 0
-0.00211508 -0.00175821 0
-0.00152514 -0.00216662 0
-0.00120049 -0.00188995 0
-0.00134222 -0.00187451 0
-0.000649026 -0.00135615 0
0 0 0
0 0 0
0 0 0
8.28311e-05 -0.000233222 0
0.000177968 -0.000912925 0
-8.60461e-05 -0.00217031 0
-0.00045306 -0.00206337 0
-0.000214112 -0.000607998 0
-0.000281387 0.00228201 0
-5.80241e-05 0.00290309 0
0.000252315 0.00118018 0
0 0 0
-0.000821084 0.00282213 0
-0.00174706 0.00482795 0
-0.00149467 0.00361933 0
-0.00110291 0.00125642 0
-0.00101481 9.7624e-05 0
-0.00102002 -7.95228e-05 0
-0.00149176 -7.5907e-06 0
-0.00209568 -0.00110329 0
-0.00207756 -0.00199318 0
-0.00219277 -0.00223715 0
-0.0022477 -0.00213116 0
-0.00192163 -0.00218541 0
-0.00197163 -0.00145027 0
-0.00184006 -0.000773799 0
-0.000986968 -0.000259345 0
-0.000762892 -8.36099e-05 0
-0.000577626 -0.000378323 0
0.00010469 -0.0019101 0
0.000356149 -0.00146924 0
-0.000347106 -0.00154488 0
-0.000339401 -0.0016132 0
0.000304953 0.00226147 0
0.000625534 0.0022821 0
0.000291886 0.00173346 0
-0.00132271 0.00129067 0
-0.00211185 0.00373647 0
-0.00216687 0.00479578 0
-0.00261275 0.00383293 0
-0.0021642 0.000638672 0
-0.00116019 -0.000384527 0
-0.00153122 0.000387847 0
-0.00222504 0.00031081 0
-0.00164926 -0.00124628 0
-0.00150782 -0.00177658 0
-0.00259559 -0.00173195 0
-0.00320643 -0.00212598 0
-0.00296804 -0.00216229 0
-0.00319324 -0.00109967 0
-0.00369261 -0.00134823 0
-0.00290613 -0.000857378 0
-0.00166085 -0.000673732 0
-0.00106191 -0.000530678 0
-0.00114213 -0.00217748 0
-0.000505734 -0.00161704 0
0.000339957 -0.00122589 0
0.00031661 -0.00147277 0
0.000441232 0.00114881 0
0.000121937 0.00353938 0
-0.000912088 0.00246823 0
-0.00143036 0.00217376 0
-0.00257945 0.00450058 0
-0.00367241 0.00553809 0
-0.00182113 0.00204894 0
0 0 0
-0.000927748 0.000136026 0
-0.00093796 0.000386953 0
0 0 0
-0.00103939 -0.000701168 0
-0.00253544 -0.000898094 0
-0.00270818 -0.00136238 0
-0.00281262 -0.0016271 0
-0.0039571 -0.00163727 0
-0.00420373 -0.00148843 0
-0.00356495 -0.0011085 0
-0.00383412 -0.00132343 0
-0.00363058 -0.00223984 0
-0.00193965 -0.00149458 0
-0.00146294 -0.0017623 0
-0.00136663 -0.00304518 0
-0.00032086 -0.00279378 0
0.000319606 -0.000754793 0
-0.000642481 0.00140776 0
-0.000808118 0.00386162 0
-0.000640498 0.00336201 0
-0.00248501 0.00344309 0
-0.00373394 0.00505664 0
-0.00208981 0.00431255 0
-0.000770845 0.000368463 0
-0.00187302 0.000364661 0
-0.0013291 -0.000187564 0
0 0 0
-0.000491568 0.000470248 0
-0.00163342 0.00059984 0
-0.00239243 -0.000191967 0
-0.00254706 -0.00119054 0
-0.00311629 -0.000879977 0
-0.00424945 -0.000876997 0
-0.00449723 -0.00168563 0
-0.00393536 -0.00121078 0
-0.00379511 -0.00141227 0
-0.00412549 -0.00244988 0
-0.00323556 -0.00270401 0
-0.0015659 -0.00255388 0
-0.00109299 -0.00255132 0
-0.0019058 -0.00305901 0
-0.000941706 -0.00142781 0
-0.000251921 0.00278344 0
-0.000348201 0.00250411 0
-0.000886618 0.00449559 0
-0.00286917 0.00616443 0
-0.00340118 0.00447218 0
-0.00313857 0.0027514 0
-0.00476758 0.00210234 0
-0.00488253 -1.4879e-05 0
-0.00325737 -0.00164549 0
-0.00303589 -0.000435346 0
-0.00317077 0.00132367 0
-0.00272371 0.000997824 0
-0.0020263 -0.000176704 0
-0.00285708 -0.000336222 0
-0.00370223 -0.00032699 0
-0.0031057 -0.000808215 0
-0.0036504 -0.000758032 0
-0.00514895 -0.00167444 0
-0.00419873 -0.00231488 0
-0.00332585 -0.00189141 0
-0.00403788 -0.00351514 0
-0.0034452 -0.00517406 0
-0.001147 -0.00262257 0
-0.000569714 -0.00258132 0
-0.000198154 -0.00349319 0
0.000509244 0.00240309 0
-0.000568833 0.00401166 0
-0.0024995 0.00595122 0
-0.0024496 0.00626533 0
-0.00225074 0.0048811 0
-0.0036926 0.00414943 0
-0.004297 0.00288548 0
-0.00472412 -0.000412551 0
-0.00483891 -0.00223496 0
-0.00418121 -0.000999307 0
-0.00368492 0.00096354 0
-0.00290798 1.73368e-05 0
-0.00237403 -0.000489002 0
-0.00242162 0.000207165 0
-0.00254609 -0.000147621 0
-0.00272684 -0.000680164 0
-0.00354015 0.000350869 0
-0.00452826 -0.00140298 0
-0.00452196 -0.00236549 0
-0.00358071 -0.00303638 0
-0.00277516 -0.00300703 0
-0.00388783 -0.00495618 0
-0.00287569 -0.00516561 0
-0.00025074 -0.00408654 0
0.000860048 -0.00245015 0
-3.99181e-05 0.00167712 0
-0.00138595 0.00711042 0
-0.00220454 0.00634248 0
-0.00163847 0.00471097 0
-0.00219066 0.00634383 0
-0.0033541 0.00586198 0
-0.00177858 0.000892554 0
0 0 0
-0.0017501 -0.00123991 0
-0.00285646 -0.00114645 0
-0.00134198 -0.000334746 0
-0.000923357 -0.000349259 0
-0.00161771 6.1e-05 0
-0.00121204 -0.000226309 0
-0.00108136 7.50798e-05 0
-0.00281704 0.000667815 0
-0.00280616 9.04733e-05 0
-0.00146956 -0.00104589 0
-0.00363178 -0.00077816 0
-0.00590351 -0.00503448 0
-0.00364972 -0.00355946 0
-0.00281096 -0.00376807 0
-0.00333762 -0.00682108 0
-0.00296965 -0.00720507 0
-0.000448928 -0.00222656 0
-0.00158128 0.00404883 0
-0.00171607 0.00585711 0
-9.84889e-05 0.00608411 0
-0.00191952 0.00681378 0
-0.00263833 0.00582502 0
-0.000213929 0.00362591 0
0.000649694 0.0004789 0
0 0 0
0.000262929 -0.000364382 0
7.9503e-05 -0.00102415 0
-0.000187731 -0.00121788 0
0 0 0
-0.000202483 0.000244218 0
-0.000801766 -2.53705e-05 0
-0.00130829 0.000553913 0
-0.00120041 0.00112857 0
-0.00083517 -0.000664017 0
-0.00112495 -4.90483e-05 0
-0.0015149 0.000331933 0
-0.00331949 -0.00276261 0
-0.00476996 -0.00449245 0
-0.00368628 -0.0065125 0
-0.00176465 -0.00482551 0
-0.00397704 -0.00666021 0
-0.00198888 -0.00609968 0
0.000730841 0.00540277 0
0.000585958 0.00432851 0
-0.0018292 0.00751002 0
-0.00405977 0.00905552 0
-0.00298444 0.00416302 0
-0.0010546 0.00127001 0
-0.000241041 0.001266 0
0 0 0
-0.000237331 -0.000402338 0
-0.000443035 -0.000905857 0
-0.0010527 -0.00057771 0
-0.000760483 -0.000275546 0
0.000168361 -0.000166913 0
-0.000314395 0.00112057 0
-0.000641563 0.000929381 0
0.000433042 -8.29454e-05 0
0.000116673 -0.000383993 0
-0.000652015 0.000314207 0
0 0 0
-0.000354672 0.000299279 0
-0.00335117 -0.00288397 0
-0.00673011 -0.00873845 0
-0.00334513 -0.00569153 0
-0.000397485 -0.00701912 0
0.00128656 -0.00799933 0
0.000868758 0.00292909 0
-0.00225912 0.00996727 0
-0.00597731 0.00982708 0
-0.00385958 0.00598498 0
-0.00215935 0.00377348 0
-0.00264627 0.00125413 0
-0.00128941 -0.00112521 0
0 0 0
-0.0005434 0.000548071 0
-0.000918107 -0.00100422 0
-0.00112964 -0.000372066 0
-0.0017087 -0.000644709 0
-0.00196757 -0.000305339 0
-0.000441291 8.47284e-05 0
0.000764934 0.000434351 0
0.000319678 0.000355467 0
2.03959e-06 0.000128987 0
4.35122e-05 -3.02396e-05 0
0 0 0
-0.000192952 0.000628963 0
0.000144483 -0.000139961 0
-0.00349628 -0.00415952 0
-0.00589047 -0.00971365 0
-0.00367772 -0.0132346 0
0.00108133 -0.00539154 0
-0.00198238 0.00447925 0
-0.00471869 0.013816 0
-0.00391087 0.00920349 0
-0.00506312 0.005738 0
-0.00929138 0.00466997 0
-0.00914536 0.000135 0
-0.00364821 -0.00500219 0
0 0 0
-0.00160467 0.00189808 0
-0.00312022 3.33723e-05 0
-0.00196521 -0.00137307 0
-0.000843062 -7.99802e-05 0
-0.00133997 -9.94031e-05 0
-0.00120165 -0.00132207 0
-0.000472556 -0.000897903 0
2.97035e-05 0.001478 0
0 0 0
0 0 0
0 0 0
-0.00034035 6.27053e-05 0
0.00101019 0.000166267 0
1.73792e-05 -0.000194393 0
-0.0056665 -0.00586518 0
-0.0104376 -0.0166023 0
-0.00333094 -0.00943089 0
-0.00256038 0.0111619 0
-0.00233222 0.00892637 0
-0.00146826 0.0102821 0
-0.00796753 0.0137022 0
-0.0085083 0.00308511 0
-0.00531379 -0.00249709 0
-0.00841883 -0.00627621 0
-0.00870919 -0.00249286 0
-0.00260581 -0.000558385 0
-0.00116913 0.00189528 0
-0.00389784 -0.00225958 0
-0.00325739 -0.000765495 0
-0.000815747 -0.00177267 0
-0.000270262 0.000135645 0
-0.00173162 -0.00110459 0
-0.00101595 0.000120246 0
0 0 0
0 0 0
0 0 0
0 0 0
0 0 0
0 0 0
0 0 0
-0.00462572 -0.0109592 0
-0.00388144 -0.0210961 0
0.0036264 0.00956883 0
-0.00098691 0.0132798 0
-0.010782 0.015002 0
-0.0104032 0.013838 0
-0.00516545 0.000842488 0
-0.00373842 -0.00168411 0
-0.00797469 -0.0021048 0
-0.0103256 -0.00513966 0
-0.00722884 -0.00403732 0
-0.00403569 0.00133663 0
-0.0026134 -0.00123008 0
-0.00196773 -0.00220444 0
-0.000306487 -0.00440236 0
0.00188499 0.000188998 0
0.00127888 0.000906278 0
-0.000144904 -0.00138102 0
0 0 0
0 0 0
0 0 0
0 0 0
-0.00430979 0.00339689 0
-0.0108917 0.00013163 0
-0.00830213 -0.00183771 0
0.00342744 -0.0165194 0
0.00711327 -0.0173195 0
-0.00270396 0.00770749 0
-0.0133347 0.0293954 0
-0.0103197 0.0120857 0
0.000177959 0.00540035 0
0 0 0
-0.00171526 0.000358106 0
-0.0013154 0.00028616 0
-0.00280424 -0.00407963 0
-0.00565542 -0.00548217 0
-0.00272094 -0.00505929 0
0 0 0
0.000262251 -0.00455157 0
-0.00165772 -0.00258383 0
-0.00212431 -0.00396489 0
0.00207533 0.000952177 0
-0.000499514 0.00260713 0
-0.00423432 4.42293e-05 0
-0.00202957 -0.00208676 0
1.05594e-05 0.00123708 0
-0.00714705 0.00554048 0
-0.00803794 0.00595341 0
-0.0042484 0.00191183 0
-0.00576261 -0.00455792 0
-0.00716035 -0.0313696 0
-0.00213835 -0.010113 0
-0.00632001 0.021143 0
-0.00709466 0.0230636 0
0.00592674 0.00238475 0
0.016141 -1.83457e-05 0
0.0156389 0.00403354 0
0.0120268 -0.000590468 0
0.015722 -0.000965429 0
0.0167333 -0.00101319 0
0.0102124 -0.00157087 0
0.00569046 -0.0065705 0
0.0108422 -0.00377378 0
0.00788672 0.000734275 0
0 0 0
0.0022103 -0.00667123 0
0.00491232 -4.97477e-05 0
0.00206834 0.007106 0
0 0 0
0.00314256 -0.00573072 0
0.00560518 0.00275779 0
0.0032689 0.00927775 0
0.00640999 0.000522544 0
0.0118162 0.00110523 0
0.00728865 0.00035102 0
-0.00611849 -0.0222355 0
-0.00596739 -0.0224543 0
0.0234858 0.0152632 0
0.0515385 0.00362703 0
0.0541415 -0.00193163 0
0.0489061 -0.00170666 0
0.0523397 0.0038238 0
0.0560031 -0.00135996 0
0.0525352 -0.00111919 0
0.0511617 5.90334e-05 0
0.0532075 0.00113917 0
0.0520544 -0.00201251 0
0.043505 -0.00380715 0
0.0438542 0.00384845 0
0.0494824 -0.000338707 0
0.0440889 -0.00359832 0
0.0384645 -0.000287707 0
0.0441022 0.00402909 0
0.0497212 -0.000169646 0
0.0438718 -0.00381166 0
0.0402422 0.00152796 0
0.0486788 0.00394339 0
0.0522069 -0.00202676 0
0.0479562 -0.000594647 0
0.0525974 0.00364732 0
0.0523622 -0.00371811 0
0.0237287 -0.015477 0


