# vtk DataFile Version 4.0
SiwiRVisFile
ASCII
DATASET STRUCTURED_POINTS
DIMENSIONS 50 50 1
ORIGIN 0 0 0
SPACING 1 1 1
POINT_DATA 2500


SCALARS flags double 1
LOOKUP_TABLE default
1
1
1
1
1
1
1
1
1
1
1
1
1
1
1
1
1
1
1
1
1
1
1
1
1
1
1
1
1
1
1
1
1
1
1
1
1
1
1
1
1
1
1
1
1
1
1
1
1
1
1
1
1
1
1
1
1
1
1
1
1
1
1
1
1
1
1
1
1
1
1
1
1
1
1
1
1
1
1
1
1
1
1
1
1
1
1
1
1
1
1
1
1
1
1
1
1
1
1
1
1
1
1
1
1
1
1
1
1
1
1
1
1
1
1
1
1
1
1
1
1
1
1
1
1
1
1
1
1
1
1
1
1
1
1
1
1
1
1
1
1
1
1
1
1
1
1
1
1
1
1
1
1
1
1
1
1
1
1
1
1
1
1
1
1
1
1
1
1
1
1
1
1
1
1
1
1
1
1
1
1
1
1
1
1
1
1
1
1
1
1
1
1
1
1
1
1
1
1
1
1
1
1
1
1
1
1
1
1
1
1
1
1
1
1
1
1
1
1
1
1
1
1
1
1
1
1
1
1
1
1
1
1
1
1
1
1
1
1
1
1
1
1
1
1
1
1
1
1
1
1
1
1
1
1
1
1
1
1
1
1
1
1
1
1
1
1
1
1
1
1
1
1
1
1
1
1
1
1
1
1
1
1
1
1
1
1
1
1
1
1
1
1
1
1
1
1
1
1
1
1
1
1
1
1
1
1
1
1
1
1
1
1
1
1
1
1
1
1
1
1
1
1
1
1
1
1
1
1
1
1
1
1
1
1
1
1
1
1
1
1
1
1
1
1
1
1
1
1
1
1
1
1
1
1
1
1
1
1
1
1
1
1
1
1
1
1
1
1
1
1
1
1
1
1
1
1
1
1
1
1
1
1
1
1
1
1
1
1
1
1
1
1
1
1
1
1
1
1
1
1
1
1
1
1
1
1
1
1
1
1
1
1
1
1
1
1
1
1
1
1
1
1
1
1
1
1
1
1
1
1
1
1
1
1
1
1
1
1
1
1
1
1
1
1
1
1
1
1
1
1
1
1
1
1
1
1
1
1
1
1
1
1
1
1
1
1
1
1
1
1
1
1
1
1
1
1
1
1
1
1
1
1
1
1
1
1
1
1
1
1
1
1
1
1
1
1
1
1
1
1
1
1
1
1
1
1
1
1
1
1
1
1
1
1
1
1
1
1
1
1
1
1
1
1
1
1
1
1
1
1
1
1
1
1
1
1
1
1
1
1
1
1
1
1
1
1
1
1
1
1
1
1
1
1
1
1
1
1
1
1
1
1
1
1
1
1
1
1
1
1
1
1
1
1
1
1
1
1
1
1
1
1
1
1
1
1
1
1
1
1
1
1
1
1
1
1
1
1
1
1
1
1
1
1
1
1
1
1
1
1
1
1
1
1
1
1
1
1
1
1
1
1
1
1
1
1
1
1
1
1
1
1
1
1
1
1
1
1
1
1
1
1
1
1
1
1
1
1
1
1
1
1
1
1
1
1
1
1
1
1
1
1
1
1
1
1
1
1
1
1
1
1
1
1
1
1
1
1
1
1
1
1
1
1
1
1
1
1
1
1
1
1
1
1
1
1
1
1
1
1
1
1
1
1
1
1
1
1
1
1
1
1
1
1
1
1
1
1
1
1
1
1
1
1
1
1
1
1
1
1
1
1
1
1
1
1
1
1
1
1
1
1
1
1
1
1
1
1
1
1
1
1
1
1
1
1
1
1
1
1
1
1
1
1
1
1
1
1
1
1
1
1
1
1
1
1
1
1
1
1
1
1
1
1
1
1
1
1
1
1
1
1
1
1
1
1
1
1
1
1
1
1
1
1
1
1
1
1
1
1
1
1
1
1
1
1
1
1
1
1
1
1
1
1
1
1
1
1
1
1
1
1
1
1
1
1
1
1
1
1
1
1
1
1
1
1
1
1
1
1
1
1
1
1
1
1
1
1
1
1
1
1
1
1
1
1
1
1
1
1
1
1
1
1
1
1
1
1
1
1
1
1
1
1
1
1
1
1
1
1
1
1
1
1
1
1
1
1
1
1
1
1
1
1
1
1
1
1
1
1
1
1
1
1
1
1
1
1
1
1
1
1
1
1
1
1
1
1
1
1
1
1
1
1
1
1
1
1
1
1
1
1
1
1
1
1
1
1
1
1
1
1
1
1
1
1
1
1
1
1
1
1
1
1
1
1
1
1
1
1
1
1
1
1
1
1
1
1
1
1
1
1
1
1
1
1
1
1
1
1
1
1
1
1
1
1
1
1
1
1
1
1
1
1
1
1
1
1
1
1
1
1
1
1
1
1
1
1
1
1
1
1
1
1
1
1
1
1
1
1
1
1
1
1
1
1
1
1
1
1
1
1
1
1
1
1
1
1
1
1
1
1
1
1
1
1
1
1
1
1
1
1
1
1
1
1
1
1
1
1
1
1
1
1
1
1
1
1
1
1
1
1
1
1
1
1
1
1
1
1
1
1
1
1
1
1
1
1
1
1
1
1
1
1
1
1
1
1
1
1
1
1
1
1
1
1
1
1
1
1
1
1
1
1
1
1
1
1
1
1
1
1
1
1
1
1
1
1
1
1
1
1
1
1
1
1
1
1
1
1
1
1
1
1
1
1
1
1
1
1
1
1
1
1
1
1
1
1
1
1
1
1
1
1
1
1
1
1
1
1
1
1
1
1
1
1
1
1
1
1
1
1
1
1
1
1
1
1
1
1
1
1
1
1
1
1
1
1
1
1
1
1
1
1
1
1
1
1
1
1
1
1
1
1
1
1
1
1
1
1
1
1
1
1
1
1
1
1
1
1
1
1
1
1
1
1
1
1
1
1
1
1
1
1
1
1
1
1
1
1
1
1
1
1
1
1
1
1
1
1
1
1
1
1
1
1
1
1
1
1
1
1
1
1
1
1
1
1
1
1
1
1
1
1
1
1
1
1
1
1
1
1
1
1
1
1
1
1
1
1
1
1
1
1
1
1
1
1
1
1
1
1
1
1
1
1
1
1
1
1
1
1
1
1
1
1
1
1
1
1
1
1
1
1
1
1
1
1
1
1
1
1
1
1
1
1
1
1
1
1
1
1
1
1
1
1
1
1
1
1
1
1
1
1
1
1
1
1
1
1
1
1
1
1
1
1
1
1
1
1
1
1
1
1
1
1
1
1
1
1
1
1
1
1
1
1
1
1
1
1
1
1
1
1
1
1
1
1
1
1
1
1
1
1
1
1
1
1
1
1
1
1
1
1
1
1
1
1
1
1
1
1
1
1
1
1
1
1
1
1
1
1
1
1
1
1
1
1
1
1
1
1
1
1
1
1
1
1
1
1
1
1
1
1
1
1
1
1
1
1
1
1
1
1
1
1
1
1
1
1
1
1
1
1
1
1
1
1
1
1
1
1
1
1
1
1
1
1
1
1
1
1
1
1
1
1
1
1
1
1
1
1
1
1
1
1
1
1
1
1
1
1
1
1
1
1
1
1
1
1
1
1
1
1
1
1
1
1
1
1
1
1
1
1
1
1
1
1
1
1
1
1
1
1
1
1
1
1
1
1
1
1
1
1
1
1
1
1
1
1
1
1
1
1
1
1
1
1
1
1
1
1
1
1
1
1
1
1
1
1
1
1
1
1
1
1
1
1
1
1
1
1
1
1
1
1
1
1
1
1
1
1
1
1
1
1
1
1
1
1
1
1
1
1
1
1
1
1
1
1
1
1
1
1
1
1
1
1
1
1
1
1
1
1
1
1
1
1
1
1
1
1
1
1
1
1
1
1
1
1
1
1
1
1
1
1
1
1
1
1
1
1
1
1
1
1
1
1
1
1
1
1
1
1
1
1
1
1
1
1
1
1
1
1
1
1
1
1
1
1
1
1
1
1
1
1
1
1
1
1
1
1
1
1
1
1
1
1
1
1
1
1
1
1
1
1
1
1
1
1
1
1
1
1
1
1
1
1
1
1
1
1
1
1
1
1
1
1
1
1
1
1
1
1
1
1
1
1
1
1
1
1
1
1
1
1
1
1
1
1
1
1
1
1
1
1
1
1
1
1
1
1
1
1
1
1
1
1
1
1
1
1
1
1
1
1
1
1
1
1
1
1
1
1
1
1
1
1
1
1
1
1
1
1
1
1
1
1
1
1
1
1
1
1
1
1
1
1
1
1
1
1
1
1
1
1
1
1
1
1
1
1
1
1
1
1
1
1
1
1
1
1
1
1
1
1
1
1
1
1
1
1
1
1
1
1
1
1
1
1
1
1
1
1
1
1
1
1
1
1
1
1
1
1
1
1
1
1
1
1
1
1
1
1
1
1
1
1
1
1
1
1
1
1
1
1
1
1
1
1
1
1
1
1
1
1
1
1
1
1
1
1
1
1
1
1
1
1
1
1
1
1
1
1
1
1
1
1
1
1
1
1
1
1
1
1
1
1
1
1
1
1
1
1
1
1
1
1
1
1
1
1
1
1
1
1
1
1
1
1
1
1
1
1
1
1
1
1
1
1
1
1
1
1
1
1
1
1
1
1
1
1
1
1
1
1
1
1
1
1
1
1
1
1
1
1
1
1
1
1
1
1
1
1
1
1
1
1
1
1
1
1
1
1
1
1
1
1
1
1
1
1
1
1
1
1
1
1
1
1
1
1
1
1
1
1
1
1
1
1
1
1
1
1
1
1
1
1
1
1
1
1
1
1
1
1
1
1
1
1
1
1
1
1
1
1
1
1
1
1
1
1
1
1
1
1
1
1
1
1
1
1
1
1
1
1
1
1
1
1
1
1
1
1
1
1
1
1
1
1
1
1
1
1
1
1
1
1
1
1
1
1
1
1
1
1
1
1
1
1
1
1
1
1
1
1
1
1
1
1
1
1
1
1
1
1
1
1
1
1
1
1
1
1
1
1
1
1
1
1
1
1
1
1
1
1
1
1
1
1
1
1
1
1
1
1
1
1
1
1
1
1
1
1
1
1
1
1
1
1
1
1
1
1
1
1
1
1
1
1
1
1
1
1
1
1
1
1
1
1
1
1
1
1
1
1
1
1
1
1
1
1
1
1
1
1
1
1
1
1
1
1
1
1
1
1
1
1
1
1
1
1
1
1
1
1
1
1
1
1
1
1
1
1
1
1
1
1
1
1
1
1
1
1
1
1
1
1
1
1
1
1
1
1
1
1
1
1
1
1
1
1
1
1
1
1
1
1
1
1
1
1
1
1
1
1
1
1
1
1
1
1
1
1
1
1
1
1
1
1
1
1
1
1
1
1
1
1
1
1
1
1
1
1
1
1
1
1
1
1
1
1
1
1
1
1
1
1
1
1
1
1
1
1
1
1
1
1
1
1
1
1
1
1
1
1
1
1
1
1
1
1
1
1
1
1
1
1
1
1
1
1
1
1
1
1
1
1
1
1
1
1
1
1
1
1
1
1
1
1
1
1
1
1
1
1
1
1
1
1
1
1
1
1
1
1
1
1
1
1
1
1
1
1
1
1
1
1
1
1
1
1
1
1
1
1
1
1
1
1
1
1
1
1
1
1
1
1
1
1
1
1
1
1
1
1
1
1
1
1
1
1
1
1
1
1
1
1
1
1
1
1
1
1
1
1
1
1
1
1
1
1
1
1
1
1
1
1
1
1
1
1
1
1
1
1
1
1
1

SCALARS density double 1
LOOKUP_TABLE default
0.999969
0.999969
0.999969
0.999969
0.999969
0.999969
0.999969
0.999969
0.999969
0.999969
0.999969
0.999969
0.999969
0.999969
0.999969
0.999969
0.999969
0.999969
0.999969
0.999969
0.999969
0.999969
0.999969
0.999969
0.999969
0.999969
0.999969
0.999969
0.999969
0.999969
0.999969
0.999969
0.999969
0.999969
0.999969
0.999969
0.999969
0.999969
0.999969
0.999969
0.999969
0.999969
0.999969
0.999969
0.999969
0.999969
0.999969
0.999969
0.999969
0.999969
0.999969
0.999969
0.999969
0.999969
0.999969
0.999969
0.999969
0.999969
0.999969
0.999969
0.999969
0.999969
0.999969
0.999969
0.999969
0.999969
0.999969
0.999969
0.999969
0.999969
0.999969
0.999969
0.999969
0.999969
0.999969
0.999969
0.999969
0.999969
0.999969
0.999969
0.999969
0.999969
0.999969
0.999969
0.999969
0.999969
0.999969
0.999969
0.999969
0.999969
0.999969
0.999969
0.999969
0.999969
0.999969
0.999969
0.999969
0.999969
0.999969
0.999969
0.999969
0.999969
0.999969
0.999969
0.999969
0.999969
0.999969
0.999969
0.999969
0.999969
0.999969
0.999969
0.999969
0.999969
0.999969
0.999969
0.999969
0.999969
0.999969
0.999969
0.999969
0.999969
0.999969
0.999969
0.999969
0.999969
0.999969
0.999969
0.999969
0.999969
0.999969
0.999969
0.999969
0.999969
0.999969
0.999969
0.999969
0.999969
0.999969
0.999969
0.999969
0.999969
0.999969
0.999969
0.999969
0.999969
0.999969
0.999969
0.999969
0.999969
0.999969
0.999969
0.999969
0.999969
0.999969
0.999969
0.999969
0.999969
0.999969
0.999969
0.999969
0.999969
0.999969
0.999969
0.999969
0.999969
0.999969
0.999969
0.999969
0.999969
0.999969
0.999969
0.999969
0.999969
0.999969
0.999969
0.999969
0.999969
0.999969
0.999969
0.999969
0.999969
0.999969
0.999969
0.999969
0.999969
0.999969
0.999969
0.999969
0.999969
0.999969
0.999969
0.999969
0.999969
0.999969
0.999969
0.999969
0.999969
0.999969
0.999969
0.999969
0.999969
0.999969
0.999969
0.999969
0.999969
0.999969
0.999969
0.999969
0.999969
0.999969
0.999969
0.999969
0.999969
0.999969
0.999969
0.999969
0.999969
0.999969
0.999969
0.999969
0.999969
0.999969
0.999969
0.999969
0.999969
0.999969
0.999969
0.999969
0.999969
0.999969
0.999969
0.999969
0.999969
0.999969
0.999969
0.999969
0.999969
0.999969
0.999969
0.999969
0.999969
0.999969
0.999969
0.999969
0.999969
0.999969
0.999969
0.999969
0.999969
0.999969
0.999969
0.999969
0.999969
0.999969
0.999969
0.999969
0.999969
0.999969
0.999969
0.999969
0.999969
0.999969
0.999969
0.999969
0.999969
0.999969
0.999969
0.999969
0.999969
0.999969
0.999969
0.999969
0.999969
0.999969
0.999969
0.999969
0.999969
0.999969
0.999969
0.999969
0.999969
0.999969
0.999969
0.999969
0.999969
0.999969
0.999969
0.999969
0.999969
0.999969
0.999969
0.999969
0.999969
0.999969
0.999969
0.999969
0.999969
0.999969
0.999969
0.999969
0.999969
0.999969
0.999969
0.999969
0.999969
0.999969
0.999969
0.999969
0.999969
0.999969
0.999969
0.999969
0.999969
0.999969
0.999969
0.999969
0.999969
0.999969
0.999969
0.999969
0.999969
0.999969
0.999969
0.999969
0.999969
0.999969
0.999969
0.999969
0.999969
0.999969
0.999969
0.999969
0.999969
0.999969
0.999969
0.999969
0.999969
0.999969
0.999969
0.999969
0.999969
0.999969
0.999969
0.999969
0.999969
0.999969
0.999969
0.999969
0.999969
0.999969
0.999969
0.999969
0.999969
0.999969
0.999969
0.999969
0.999969
0.999969
0.999969
0.999969
0.999969
0.999969
0.999969
0.999969
0.999969
0.999969
0.999969
0.999969
0.999969
0.999969
0.999969
0.999969
0.999969
0.999969
0.999969
0.999969
0.999969
0.999969
0.999969
0.999969
0.999969
0.999969
0.999969
0.999969
0.999969
0.999969
0.999969
0.999969
0.999969
0.999969
0.999969
0.999969
0.999969
0.999969
0.999969
0.999969
0.999969
0.999969
0.999969
0.999969
0.999969
0.999969
0.999969
0.999969
0.999969
0.999969
0.999969
0.999969
0.999969
0.999969
0.999969
0.999969
0.999969
0.999969
0.999969
0.999969
0.999969
0.999969
0.999969
0.999969
0.999969
0.999969
0.999969
0.999969
0.999969
0.999969
0.999969
0.999969
0.999969
0.999969
0.999969
0.999969
0.999969
0.999969
0.999969
0.999969
0.999969
0.999969
0.999969
0.999969
0.999969
0.999969
0.999969
0.999969
0.999969
0.999969
0.999969
0.999969
0.999969
0.999969
0.999969
0.999969
0.999969
0.999969
0.999969
0.999969
0.999969
0.999969
0.999969
0.999969
0.999969
0.999969
0.999969
0.999969
0.999969
0.999969
0.999969
0.999969
0.999969
0.999969
0.999969
0.999969
0.999969
0.999969
0.999969
0.999969
0.999969
0.999969
0.999969
0.999969
0.999969
0.999969
0.999969
0.999969
0.999969
0.999969
0.999969
0.999969
0.999969
0.999969
0.999969
0.999969
0.999969
0.999969
0.999969
0.999969
0.999969
0.999969
0.999969
0.999969
0.999969
0.999969
0.999969
0.999969
0.999969
0.999969
0.999969
0.999969
0.999969
0.999969
0.999969
0.999969
0.999969
0.999969
0.999969
0.999969
0.999969
0.999969
0.999969
0.999969
0.999969
0.999969
0.999969
0.999969
0.999969
0.999969
0.999969
0.999969
0.999969
0.999969
0.999969
0.999969
0.999969
0.999969
0.999969
0.999969
0.999969
0.999969
0.999969
0.999969
0.999969
0.999969
0.999969
0.999969
0.999969
0.999969
0.999969
0.999969
0.999969
0.999969
0.999971
0.999969
0.999969
0.999969
0.999969
0.999969
0.999969
0.999969
0.999969
0.999969
0.999969
0.999969
0.999969
0.999969
0.999969
0.999969
0.999969
0.999969
0.99997
0.99997
0.99997
0.999969
0.999969
0.999969
0.999969
0.999969
0.999969
0.999969
0.999969
0.999969
0.999969
0.999969
0.999969
0.999969
0.999969
0.99997
0.99997
0.99997
0.99997
0.99997
0.99997
0.99997
0.99997
0.99997
0.99997
0.999969
0.999969
0.999968
0.99997
0.999969
0.999966
0.999969
0.99997
0.99997
0.99997
0.99997
0.99997
0.99997
0.99997
0.99997
0.999969
0.999969
0.999969
0.999969
0.999969
0.999969
0.999969
0.999969
0.999968
0.999968
0.999968
0.999968
0.999969
0.999969
0.999969
0.99997
0.99997
0.99997
0.99997
0.99997
0.99997
0.99997
0.99997
0.99997
0.99997
0.99997
0.99997
0.999969
0.999969
0.999969
0.999969
0.999969
0.999969
0.999969
0.999969
0.999969
0.999969
0.999968
0.999969
0.999971
0.99997
0.99997
0.999969
0.999969
0.999969
0.999969
0.999969
0.999969
0.999969
0.999969
0.99997
0.99997
0.99997
0.99997
0.99997
0.999969
0.999968
0.999969
0.999968
0.999964
0.999968
0.999972
0.999966
0.999965
0.999974
0.999973
0.999967
0.999971
0.999974
0.999971
0.999969
0.99997
0.999969
0.999968
0.999968
0.999967
0.999967
0.999968
0.999968
0.999968
0.999968
0.999968
0.999968
0.999969
0.999969
0.999969
0.999968
0.999974
0.999967
0.999967
0.999971
0.999967
0.99997
0.999969
0.999969
0.999969
0.999969
0.999969
0.999968
0.999969
0.999969
0.999969
0.99997
0.999969
0.999968
0.999971
0.99997
0.999965
0.999972
0.999975
0.999966
0.999966
0.999975
0.999973
0.999965
0.999964
0.999972
0.999971
0.999962
0.999966
0.999972
0.999968
0.999966
0.999969
0.999969
0.999968
0.999969
0.99997
0.999971
0.999971
0.999971
0.999971
0.999971
0.999971
0.999971
0.99997
0.999969
0.999973
0.999968
0.999969
0.999971
0.999969
0.999969
0.99997
0.99997
0.99997
0.99997
0.99997
0.999969
0.999969
0.999969
0.999967
0.999968
0.99997
0.999961
0.999965
0.999982
0.999962
0.999953
0.999995
0.999983
0.999942
0.999981
0.999997
0.99994
0.999956
0.999996
0.999955
0.999944
0.999985
0.999977
0.999958
0.999975
0.999979
0.99997
0.999973
0.999973
0.999971
0.999971
0.999971
0.99997
0.999969
0.999969
0.999969
0.999969
0.999968
0.999972
0.999958
0.999972
0.999969
0.999962
0.999971
0.999968
0.999969
0.999968
0.999969
0.999968
0.99997
0.99997
0.999967
0.999973
0.999971
0.999956
0.999977
0.999986
0.999938
0.999951
1.00002
0.99997
0.999914
0.999988
1.00002
0.999937
0.99993
1.00001
1
0.999921
0.999953
1.00002
0.999969
0.999925
0.999989
1
0.999952
0.999962
0.999981
0.999965
0.999963
0.999968
0.999965
0.999966
0.999967
0.999967
0.999968
0.999967
0.999969
0.999973
0.99997
0.999975
0.999967
0.999971
0.999968
0.999968
0.999966
0.999967
0.999968
0.999966
0.999966
0.999975
0.999963
0.99996
1
0.999968
0.999921
1.00001
1.00003
0.999898
0.999955
1.00006
0.999929
0.9999
1.00005
0.999958
0.999894
1.00004
0.999985
0.999894
1.00003
1.00001
0.999878
0.999981
1.00003
0.999909
0.999928
1.00001
0.999968
0.999938
0.999978
0.999976
0.999965
0.999974
0.999974
0.999973
0.999974
0.999972
0.999975
0.999965
0.999979
0.999966
0.999957
0.999968
0.999966
0.999972
0.999973
0.99997
0.999974
0.999977
0.999956
0.999979
1
0.999919
0.999943
1.00007
0.999959
0.999843
1.00005
1.00009
0.999845
0.999909
1.00013
0.999959
0.999793
1.00005
1.00011
0.999826
0.999893
1.00014
0.999976
0.999811
1.00003
1.00008
0.999857
0.999895
1.00009
0.99998
0.999878
0.999999
1.00002
0.99994
0.999963
0.999984
0.999963
0.999965
0.999968
0.999967
0.999965
0.999966
0.999973
0.999975
0.99995
0.999952
0.999967
0.999963
0.999979
0.999968
0.999959
1
0.999973
0.999899
1.00003
1.00006
0.999832
0.99991
1.00015
0.999935
0.999796
1.00007
1.00005
0.999822
0.999965
1.00008
0.999918
0.999945
1.00002
0.999923
0.999981
1.00002
0.999876
0.999973
1.0001
0.999897
0.999881
1.00013
1
0.999804
1.00002
1.00009
0.999878
0.999909
1.00003
0.99996
0.999933
0.999975
0.999966
0.999962
0.999972
0.999979
0.999978
0.999997
0.99992
0.999923
0.999953
0.999936
0.999959
0.999989
0.999914
0.999933
1.00009
0.999931
0.999787
1.0001
1.00011
0.999762
0.999917
1.00018
0.999896
0.999774
1.00011
1.0001
0.999753
0.999919
1.00026
0.999888
0.99973
1.00021
1.00005
0.999688
1.00002
1.00017
0.999846
0.99984
1.00014
1.00003
0.999773
1.00001
1.00015
0.999835
0.999854
1.00014
1
0.99986
1.00001
1.00002
0.999955
0.999976
1
0.999988
1.00001
1.00002
0.999884
0.999883
0.999924
0.999924
0.999879
1.00001
1.00005
0.999787
0.999926
1.00021
0.999892
0.999746
1.00014
1.00008
0.999775
0.999984
1.00014
0.999926
0.999879
1.00001
1.00004
0.999975
0.999853
1.00001
1.00009
0.999839
0.999939
1.00009
0.999943
0.999904
0.999943
1.00005
0.999999
0.999818
0.99996
1.00014
0.99987
0.999832
1.00017
1.00003
0.999754
1.00001
1.00013
0.9999
0.999936
1.00005
1.00001
1.00001
1.00006
1.00004
0.999886
0.99982
0.999842
0.999976
0.999861
0.999766
1.00014
1.0001
0.999704
0.999957
1.00022
0.999869
0.999826
1.00014
1.00001
0.999824
0.99999
1.00012
0.999878
0.999876
1.00012
0.999975
0.999752
1.00003
1.00013
0.999816
0.999894
1.00018
0.999976
0.999825
1.00006
1.00005
0.999837
0.999958
1.00009
0.99992
0.999822
1.00009
1.00004
0.999744
0.999979
1.00019
0.999832
0.99982
1.00014
1.00007
0.999963
1.00008
1.0001
1.00004
0.999792
0.999801
0.999622
0.999772
1.00004
0.999711
0.999644
1.00014
1.00004
0.999738
0.999995
1.00011
0.999855
0.999883
1.00003
0.999984
0.999908
0.999904
1.00002
1.00002
0.999895
0.999912
1.00016
0.999923
0.999743
1.0002
1.00001
0.999773
1.00004
1.00004
0.999905
0.999917
1.00004
1.00002
0.999933
0.999911
1.00005
1.00005
0.999835
0.999953
1.00015
0.99989
0.999826
1.00025
1.00018
0.999907
1.00014
1.00027
1.00011
1.00012
0.999445
0.999857
0.999598
0.999267
0.999597
0.999927
0.999589
0.999635
1.00002
0.999922
0.99981
0.99997
1.00004
0.999936
0.999932
1
0.999965
0.999848
1.00007
1.00008
0.999776
1.00006
1.00008
0.999869
0.99999
0.999931
1.00009
0.999863
0.999855
1.00016
0.99986
0.999863
1.00009
0.999958
0.999934
1.00003
0.999985
0.999879
0.999988
1.00011
0.999986
0.999931
1.00027
1.00027
1
1.00029
1.00055
1.00025
1.00005
1.00038
0.99937
0.999328
0.999378
0.999421
0.999024
0.99936
0.999641
0.999493
0.99963
0.999901
0.999933
0.999878
0.999944
1.00008
0.999911
0.99992
1.00009
1.00011
0.999793
0.999829
1.00021
0.999871
0.99982
1.00007
1.00005
0.999889
0.999861
1.00012
1.00007
0.999723
1.0001
1.00016
0.99982
0.999847
1.00003
1.00001
0.999826
0.999998
1.00006
0.999942
0.999993
1.00027
1.00033
1.0002
1.00047
1.00072
1.00035
1.00041
1.00047
1.00043
0.999422
0.998461
0.99846
0.999166
0.998847
0.998661
0.998975
0.999255
0.999289
0.999436
0.999793
0.999812
0.999722
0.99996
1.00015
0.999786
0.999903
1.00005
0.999941
0.999904
1.00003
0.999951
0.999881
1.00006
0.999991
0.999965
0.999867
1.00005
0.999992
0.999901
1.00003
0.99998
0.999868
1.00004
1.00013
0.999757
0.999974
1.00019
1.00005
1.00007
1.00044
1.00051
1.00047
1.00074
1.00099
1.00076
1.00053
1.00112
1.00107
1.00037
0.997893
0.998362
0.998258
0.997996
0.998104
0.998294
0.998122
0.998449
0.998828
0.998808
0.999235
0.999767
0.999762
0.999573
0.999953
1.00014
0.999793
0.999911
1.0001
1.00019
0.99964
1.00003
1.00024
0.999804
0.999894
1.00003
1.00015
0.999694
0.999886
1.00032
0.999734
0.999815
1.00006
1.00011
0.999775
0.999971
1.00033
1.0001
1.00008
1.00059
1.00089
1.0008
1.00115
1.00141
1.00116
1.00126
1.00146
1.00115
1.00103
1.00154
0.997229
0.99843
0.99759
0.997437
0.997664
0.998091
0.997559
0.997685
0.998166
0.998535
0.998412
0.999068
0.999601
0.999752
0.99963
1.00006
1.00005
0.999785
1.00006
0.999864
1.00012
0.999873
0.999845
1.00008
0.999853
1.00007
0.999868
1.00009
1.00008
0.999795
1.00007
0.999901
1.0001
0.99986
0.99988
1.00027
1.00007
1.0002
1.00067
1.00117
1.00097
1.00129
1.00164
1.00164
1.00121
1.00157
1.00178
1.00163
1.00097
1.00192
0.997841
0.997395
0.996849
0.998187
0.997673
0.997398
0.997624
0.997412
0.99721
0.997665
0.998098
0.998033
0.998877
0.999339
0.999591
0.999445
1.00001
1.00016
0.999654
0.99985
1.00014
1.00011
0.999722
1.00002
1.00018
0.999778
0.999881
1.00022
0.999846
0.999761
1.00007
1.00025
0.999767
0.999909
1.0004
1.00023
1.00041
1.00081
1.00144
1.00127
1.00163
1.00199
1.00173
1.00157
1.00188
1.0016
1.00112
1.00229
1.00193
1.00143
0.997284
0.996994
0.997845
0.99848
0.997339
0.997351
0.998073
0.997785
0.997179
0.99708
0.997484
0.997762
0.997843
0.9986
0.999258
0.999791
0.999431
1.00001
1.00002
0.999961
0.999972
0.999935
1.00021
0.999795
0.999909
1.00001
1.00016
0.99971
0.999967
1.00001
0.999929
0.999909
0.999891
1.00041
1.00008
1.00043
1.001
1.00154
1.00155
1.0018
1.00212
1.00201
1.00157
1.00143
1.00202
1.00206
1.0013
1.00169
1.00236
1.00208
0.996829
0.998218
0.998102
0.997619
0.997995
0.998975
0.998
0.997624
0.998057
0.997853
0.996835
0.99749
0.997795
0.9978
0.998578
0.999112
0.999722
0.999329
1.0003
1
0.999585
0.999924
1.00008
0.999954
0.999805
1.0001
1.00001
0.999863
0.999984
1.00031
0.99995
0.999616
1.00051
1.0001
1.00053
1.00096
1.00158
1.00155
1.00174
1.00239
1.00154
1.00145
1.00199
1.00175
1.00098
1.00177
1.00228
1.0017
1.00149
1.00274
0.997551
0.998074
0.99706
0.997382
0.997812
0.997803
0.99797
0.997819
0.998274
0.997749
0.997559
0.996735
0.997309
0.997474
0.997529
0.998446
0.999168
0.999757
0.999326
0.999915
1.00018
0.999971
0.999784
1.0001
1.00019
0.999771
0.999793
1.00015
0.999966
0.999725
0.999973
1.00048
1.00008
1.00048
1.0011
1.00186
1.00182
1.002
1.00256
1.00194
1.0019
1.00161
1.00202
1.00189
1.00225
1.00209
1.00239
1.00284
1.00194
1.00218
0.998075
0.996876
0.996567
0.998369
0.99702
0.996471
0.998121
0.998881
0.997387
0.997769
0.99843
0.997798
0.996511
0.997656
0.997648
0.997841
0.998485
0.999326
0.999689
0.999647
1.00019
1.00003
0.999792
0.999975
1
0.999934
0.999924
1.00011
0.999904
0.999721
1.00021
1.00017
1.00032
1.00106
1.00158
1.00171
1.00174
1.00279
1.00187
1.00134
1.00211
1.0025
1.00126
1.00175
1.00331
1.00267
1.00149
1.00302
1.00299
1.0019
0.99704
0.998098
0.997509
0.997579
0.997219
0.997834
0.997532
0.997613
0.998079
0.998243
0.998089
0.997896
0.997955
0.99645
0.997481
0.997437
0.997959
0.998535
0.99942
0.999877
0.999321
0.99991
1.00018
0.999798
0.999704
1.00019
1.00018
0.999746
0.99995
1.00056
0.999992
1.00024
1.00105
1.00152
1.00192
1.00192
1.00295
1.00177
1.00186
1.002
1.00178
1.00187
1.00243
1.0023
1.00205
1.0025
1.00249
1.00211
1.00191
1.00304
0.996945
0.998886
0.997954
0.996233
0.997617
0.998039
0.996957
0.995745
0.998635
0.998154
0.997044
0.997765
0.998052
0.997487
0.996341
0.997495
0.997651
0.997959
0.998958
0.999496
0.999835
0.99982
1.00004
1.00016
1.00003
0.9999
0.999774
0.999882
1.00006
0.99998
1.00024
1.00065
1.00151
1.00181
1.00197
1.00311
1.00223
1.00187
1.00225
1.00295
1.00193
1.00142
1.00395
1.00282
1.00205
1.0023
1.00379
1.00212
1.00149
1.00309
0.998064
0.997102
0.996863
0.998306
0.997536
0.996624
0.997614
0.997502
0.996866
0.997276
0.998232
0.99835
0.99777
0.998037
0.997638
0.996631
0.997545
0.998059
0.998268
0.999014
0.999955
0.999903
0.999558
0.999954
1.00024
0.999723
0.999849
1.00031
1.00003
0.999824
1.00062
1.00132
1.00146
1.00192
1.00283
1.00217
1.0019
1.00229
1.00183
1.00163
1.00259
1.00296
1.00223
1.00209
1.0034
1.0023
1.00166
1.00311
1.00297
1.00189
0.997437
0.996415
0.996429
0.997756
0.996915
0.99617
0.997975
0.997598
0.996632
0.996633
0.998789
0.997607
0.997067
0.997662
0.997757
0.99708
0.99627
0.997537
0.998031
0.998635
0.999366
0.999653
0.99998
0.999697
0.999818
1.00008
1.00024
0.999902
1.00012
1.00038
1.00097
1.00151
1.00196
1.00327
1.0028
1.00219
1.00238
1.00287
1.00246
1.00129
1.0031
1.00315
1.0023
1.00196
1.00358
1.00281
1.00227
1.00329
1.00342
1.0025
0.995936
0.998213
0.998003
0.995759
0.998384
0.998529
0.997189
0.996668
0.998332
0.997775
0.995882
0.997831
0.998697
0.997949
0.997395
0.997591
0.997519
0.996792
0.997974
0.998793
0.998868
0.999614
1.0003
1.00002
0.999779
1.00008
0.999959
0.999586
1.00008
1.0008
1.00085
1.00158
1.00283
1.00232
1.00232
1.00261
1.00228
1.00137
1.00202
1.00391
1.00212
1.00157
1.00352
1.00274
1.0014
1.00159
1.00411
1.00172
1.00169
1.00388
0.995665
0.997501
0.996675
0.995725
0.997194
0.997345
0.996405
0.996289
0.997752
0.997001
0.99646
0.997139
0.998332
0.99733
0.99729
0.997578
0.997185
0.99687
0.996858
0.99796
0.998972
0.999451
0.999432
0.999987
1.00011
0.999815
0.999774
1.00034
1.00035
1.0007
1.0016
1.00276
1.003
1.00278
1.00248
1.00277
1.00265
1.00176
1.00269
1.00334
1.00291
1.00225
1.00365
1.00324
1.00271
1.00274
1.00381
1.00319
1.00247
1.00374
0.998382
0.994565
0.996052
0.998425
0.996999
0.994369
0.99805
0.998
0.996535
0.996982
0.998655
0.997736
0.995909
0.998393
0.998936
0.997146
0.99691
0.997365
0.997301
0.997524
0.998834
0.999546
0.999387
0.999874
0.999984
0.999944
0.999922
1.00039
1.00024
1.00079
1.00218
1.00261
1.00259
1.00311
1.00303
1.00138
1.00149
1.00381
1.00222
1.00126
1.00308
1.00332
1.00191
1.0017
1.00541
1.00288
1.00158
1.00383
1.00537
1.00127
0.996491
0.997103
0.997861
0.997443
0.997457
0.996639
0.997737
0.998103
0.99752
0.996971
0.997698
0.997365
0.997406
0.997423
0.997904
0.997615
0.997362
0.997291
0.997099
0.997496
0.99797
0.998976
1.00004
0.999856
0.999601
1.00015
1.0001
0.999775
1.00064
1.00173
1.00238
1.00293
1.00286
1.0028
1.00254
1.00219
1.00251
1.00247
1.00269
1.00244
1.00284
1.0023
1.00205
1.00228
1.00313
1.00261
1.00313
1.00214
1.0028
1.0038
0.995093
0.998914
0.996962
0.99313
0.996624
0.998126
0.995669
0.994786
0.998069
0.99701
0.995416
0.997188
0.997843
0.996794
0.996282
0.998187
0.997936
0.996297
0.996524
0.997419
0.998
0.998661
0.999687
0.999805
0.999906
0.999909
0.999993
1.00002
1.00106
1.00191
1.00256
1.00352
1.00396
1.00245
1.00177
1.00346
1.00314
1.00215
1.00293
1.00466
1.00295
1.00172
1.00507
1.00428
1.00201
1.0035
1.00694
1.00294
1.00171
1.00513
0.998971
0.995492
0.996742
0.99745
0.99816
0.996633
0.998487
0.99831
0.997307
0.997746
0.998392
0.998232
0.997691
0.998224
0.998704
0.998091
0.997922
0.998047
0.997647
0.99733
0.998228
0.998994
0.999136
0.999679
1.00028
0.999641
0.999971
1.00063
1.00099
1.00183
1.0029
1.00284
1.00236
1.00221
1.00202
1.00142
1.00186
1.0023
1.00174
1.00161
1.00232
1.003
1.0017
1.00156
1.00384
1.00197
1.00257
1.00353
1.00517
1.00116
0.997549
0.993454
0.995145
0.999422
0.995276
0.993569
0.997442
0.99729
0.994514
0.995385
0.998212
0.99689
0.995269
0.997104
0.997285
0.995777
0.996124
0.997286
0.99667
0.995939
0.997072
0.998449
0.99913
0.999641
0.99983
0.999908
1.00021
1.00075
1.00141
1.00286
1.0044
1.00391
1.00304
1.00392
1.00425
1.00261
1.00262
1.00467
1.0033
1.00174
1.00433
1.00549
1.00283
1.0026
1.00674
1.0047
1.00128
1.00552
1.0065
1.00321
0.993041
0.998668
0.999199
0.992875
0.99824
0.998177
0.996628
0.995806
0.998742
0.998983
0.997189
0.998001
0.999137
0.998382
0.997769
0.998546
0.999248
0.998174
0.997746
0.998593
0.998584
0.998793
0.999811
0.999947
0.999497
1.00021
1.00002
1.0001
1.00133
1.00201
1.00219
1.00287
1.00239
1.00099
1.00137
1.00218
1.00175
1.00102
1.00209
1.00314
1.00115
1.00134
1.00442
1.00354
1.00215
1.00192
1.00757
1.00086
1.00166
1.0076
0.993803
0.999889
0.994576
0.992745
0.99617
0.997348
0.994976
0.994749
0.99755
0.997046
0.995742
0.996385
0.997636
0.996476
0.996072
0.996692
0.996333
0.995787
0.996194
0.996685
0.996842
0.997624
0.998714
0.999433
0.999712
1.00016
1.0003
1.0011
1.00263
1.0038
1.00393
1.00432
1.00463
1.00377
1.00319
1.00402
1.00376
1.00211
1.00328
1.00454
1.00327
1.00231
1.00547
1.00521
1.00279
1.00399
1.00732
1.00529
1.00171
1.00693
1.0013
0.989271
0.995493
1.00117
0.99789
0.992379
0.998254
0.998947
0.995418
0.996871
0.999104
0.998173
0.996911
0.99884
0.999407
0.997556
0.997502
0.999214
0.998652
0.997388
0.998254
0.999671
0.999499
0.999734
1.00021
0.999701
1.00018
1.0009
1.00094
1.00257
1.00386
1.00266
1.00116
1.002
1.00214
1.00059
1.00098
1.00298
1.00192
1.00107
1.00325
1.00485
1.00147
1.00195
1.00784
1.00292
0.999528
1.0052
1.01086
0.997686
0.992277
0.991701
0.993901
0.997015
0.99539
0.994012
0.996998
0.996244
0.995486
0.996976
0.997702
0.996917
0.996628
0.997736
0.996929
0.996122
0.996319
0.996451
0.996234
0.996964
0.997869
0.998583
0.998961
0.999463
0.999899
0.999772
1.00042
1.00127
1.00195
1.00321
1.00453
1.00497
1.00383
1.00348
1.00397
1.00319
1.00195
1.00342
1.00374
1.00262
1.00298
1.00479
1.00412
1.00257
1.00569
1.00541
1.00328
1.00566
1.00818
1.01014
0.991955
1.0049
0.997879
0.989742
0.997538
0.999858
0.994942
0.994541
0.998467
0.997923
0.99562
0.997873
0.99912
0.997797
0.997092
0.998076
0.997718
0.996216
0.996876
0.998404
0.998342
0.99843
0.999744
1
0.999854
1.00031
1.00002
1.00031
1.00241
1.00302
1.00298
1.00431
1.00444
1.00197
1.00125
1.00275
1.00176
1.00025
1.0023
1.00527
1.00212
1.00141
1.00661
1.0056
0.998914
1.00392
1.01212
1.00044
0.996433
1.02152

VECTORS velocity double
-1.70008e-16 -4.51042e-17 0
9.3678e-17 1.24904e-16 0
1.5613e-16 6.93911e-17 0
-3.1226e-17 9.02084e-17 0
-2.42869e-17 7.28606e-17 0
-5.55129e-17 6.59215e-17 0
-1.38782e-17 1.38782e-16 0
1.14495e-16 9.71475e-17 0
5.55129e-17 1.80417e-16 0
1.73478e-17 4.85738e-17 0
1.83886e-16 2.18582e-16 0
2.63686e-16 -1.70008e-16 0
1.00617e-16 6.93911e-17 0
9.02084e-17 -1.24904e-16 0
1.76947e-16 -1.31843e-16 0
-1.35313e-16 9.71475e-17 0
-1.24904e-16 2.01234e-16 0
3.46955e-17 1.59599e-16 0
1.38782e-17 1.45721e-16 0
4.51042e-17 3.46955e-18 0
-5.89824e-17 3.46955e-17 0
4.85738e-17 -3.1226e-17 0
1.04087e-17 -5.55129e-17 0
3.81651e-17 1.11026e-16 0
2.28991e-16 3.46955e-18 0
2.42869e-17 2.04704e-16 0
-1.38782e-16 -3.1226e-17 0
-1.24904e-16 8.32693e-17 0
6.93911e-18 2.42869e-16 0
1.63069e-16 9.02084e-17 0
-3.46955e-17 1.49191e-16 0
3.81651e-17 1.80417e-16 0
-2.39399e-16 1.38782e-16 0
1.31843e-16 1.45721e-16 0
-6.59215e-17 5.20433e-17 0
-3.46955e-17 -1.5266e-16 0
-1.17965e-16 -1.04087e-16 0
4.51042e-17 2.42869e-17 0
-1.63069e-16 -2.15112e-16 0
-7.63302e-17 3.0879e-16 0
-3.01851e-16 -2.08173e-17 0
-9.71475e-17 1.73478e-17 0
-5.55129e-17 2.77564e-17 0
-1.59599e-16 2.84503e-16 0
2.42869e-17 5.55129e-17 0
-1.45721e-16 -3.81651e-17 0
6.93911e-18 -6.93911e-18 0
-1.21434e-16 9.71475e-17 0
2.77564e-16 -1.66539e-16 0
-1.80417e-16 0 0
1.11026e-16 2.42869e-17 0
2.53277e-16 3.1226e-17 0
-2.77564e-17 -2.77564e-17 0
3.46955e-18 -1.00617e-16 0
-6.2452e-17 1.38782e-17 0
-1.35313e-16 1.11026e-16 0
9.3678e-17 2.11643e-16 0
9.3678e-17 2.04704e-16 0
8.67388e-17 4.19816e-16 0
3.71242e-16 -9.02084e-17 0
2.49808e-16 -8.32693e-17 0
5.27372e-16 -9.02084e-17 0
4.99616e-16 -2.08173e-17 0
-6.2452e-17 0 0
8.67388e-17 3.46955e-18 0
3.46955e-17 -1.80417e-16 0
-6.93911e-17 2.01234e-16 0
3.1226e-17 1.94295e-16 0
2.63686e-16 2.22051e-16 0
1.49191e-16 6.93911e-18 0
-5.89824e-17 -1.04087e-16 0
3.46955e-17 -1.49191e-16 0
-9.02084e-17 -4.51042e-17 0
4.23286e-16 -1.31843e-16 0
1.87356e-16 1.49191e-16 0
1.63069e-16 2.22051e-16 0
-1.31843e-16 1.04087e-17 0
-9.3678e-17 -5.20433e-17 0
1.21434e-16 1.73478e-17 0
9.3678e-17 1.59599e-16 0
9.02084e-17 1.21434e-16 0
0 1.73478e-16 0
1.07556e-16 1.28373e-16 0
-2.15112e-16 -3.81651e-17 0
-1.42252e-16 -3.64303e-16 0
-2.53277e-16 -6.93911e-18 0
-1.07556e-16 -1.87356e-16 0
9.02084e-17 6.59215e-17 0
-1.5613e-16 -2.08173e-16 0
-2.25521e-16 -3.81651e-17 0
-4.09407e-16 -4.16346e-17 0
-1.5613e-16 -2.22051e-16 0
-1.42252e-16 5.20433e-17 0
-1.11026e-16 1.04087e-17 0
-1.14495e-16 -5.89824e-17 0
-2.01234e-16 -3.46955e-18 0
4.16346e-17 -1.17965e-16 0
-1.94295e-16 2.08173e-17 0
6.93911e-18 7.97997e-17 0
1.11026e-16 -6.59215e-17 0
-2.08173e-17 -3.46955e-17 0
-4.51042e-17 -1.04087e-17 0
2.42869e-16 1.04087e-17 0
-2.42869e-16 1.66539e-16 0
1.5266e-16 6.2452e-17 0
1.11026e-16 1.5266e-16 0
1.63069e-16 2.53277e-16 0
1.70008e-16 2.15112e-16 0
6.93911e-18 4.26755e-16 0
1.49191e-16 4.16346e-17 0
1.24904e-16 3.05321e-16 0
1.66539e-16 2.77564e-16 0
2.46338e-16 2.11643e-16 0
1.31843e-16 -4.51042e-17 0
8.67388e-17 1.21434e-16 0
4.16346e-17 2.53277e-16 0
1.04087e-17 2.91443e-16 0
-3.1226e-17 4.09407e-16 0
-3.1226e-17 2.01234e-16 0
6.59215e-17 2.56747e-16 0
-1.38782e-17 3.1226e-17 0
2.60217e-16 2.11643e-16 0
1.5613e-16 1.49191e-16 0
2.56747e-16 2.11643e-16 0
1.5613e-16 2.84503e-16 0
2.08173e-17 3.46955e-17 0