# vtk DataFile Version 4.0
SiwiRVisFile
ASCII
DATASET STRUCTURED_POINTS
DIMENSIONS 25 25 1
ORIGIN 0 0 0
SPACING 1 1 1
POINT_DATA 625

SCALARS flags double 1
LOOKUP_TABLE default
1
1
1
1
1
1
1
1
1
1
1
1
1
1
1
1
1
1
1
1
1
1
1
1
1
1
1
1
1
1
1
1
1
1
1
1
1
1
1
1
1
1
1
1
1
1
1
1
1
1
1
1
1
1
1
1
1
1
1
1
1
1
1
1
1
1
1
1
1
1
1
1
1
1
1
1
1
1
1
1
1
1
1
1
1
1
1
1
1
1
1
1
1
1
1
1
1
1
1
1
1
1
1
1
1
1
1
1
1
1
1
1
1
1
1
1
1
1
1
1
1
1
1
1
1
1
1
1
1
1
1
1
1
1
1
1
1
1
1
1
1
1
1
1
1
1
1
1
1
1
1
1
1
1
1
1
1
1
1
1
1
1
1
1
1
1
1
1
1
1
1
1
1
1
1
1
1
1
1
1
1
1
1
1
1
1
1
1
1
1
1
1
1
1
1
1
1
1
1
1
1
1
1
1
1
1
1
1
1
1
1
1
1
1
1
1
1
1
1
1
1
1
1
1
1
1
1
1
1
1
1
1
1
1
1
1
1
1
1
1
1
1
1
1
1
1
1
1
1
1
1
1
1
1
1
1
1
1
1
1
1
1
1
1
1
1
1
1
1
1
1
1
1
1
1
1
1
1
1
1
1
1
1
1
1
1
1
1
1
1
1
1
1
1
1
1
1
1
1
1
1
1
1
1
1
1
1
1
1
1
1
1
1
1
1
1
1
1
1
1
1
1
1
1
1
1
1
1
1
1
1
1
1
1
1
1
1
1
1
1
1
1
1
1
1
1
1
1
1
1
1
1
1
1
1
1
1
1
1
1
1
1
1
1
1
1
1
1
1
1
1
1
1
1
1
1
1
1
1
1
1
1
1
1
1
1
1
1
1
1
1
1
1
1
1
1
1
1
1
1
1
1
1
1
1
1
1
1
1
1
1
1
1
1
1
1
1
1
1
1
1
1
1
1
1
1
1
1
1
1
1
1
1
1
1
1
1
1
1
1
1
1
1
1
1
1
1
1
1
1
1
1
1
1
1
1
1
1
1
1
1
1
1
1
1
1
1
1
1
1
1
1
1
1
1
1
1
1
1
1
1
1
1
1
1
1
1
1
1
1
1
1
1
1
1
1
1
1
1
1
1
1
1
1
1
1
1
1
1
1
1
1
1
1
1
1
1
1
1
1
1
1
1
1
1
1
1
1
1
1
1
1
1
1
1
1
1
1
1
1
1
1
1
1
1
1
1
1
1
1
1
1
1
1
1
1
1
1
1
1
1
1
1
1
1
1
1
1
1
1
1
1
1
1
1
1
1
1
1
1
1
1
1
1
1
1
1
1
1
1
1
1
1
1
1
1
1
1
1
1
1
1
1
1
1
1
1
1
1
1
1
1
1
1
1
1
1
1
1
1
1
1
1
1
1

SCALARS density double 1
LOOKUP_TABLE default
0.999483
0.999512
0.999637
0.999545
0.999489
0.999731
0.999766
0.999517
0.999678
1
0.999734
0.999576
1.00003
1.00005
0.999628
0.99987
1.00025
0.99987
0.999731
1.00024
1.00015
0.999717
1.00005
1.00033
0.999862
0.999787
0.999252
0.999451
0.999885
0.999586
0.999396
0.999761
0.999862
0.999606
0.999683
0.999901
0.99985
0.999789
0.999854
0.999921
0.999977
0.999943
0.999867
1.00001
1.00013
0.999949
0.999866
1.00015
1.00015
0.999827
0.999469
0.999682
0.999545
0.999506
0.99971
0.999648
0.999547
0.999812
0.99983
0.99957
0.999817
1.00005
0.999704
0.999726
1.00016
0.999948
0.999656
1.00011
1.00023
0.999702
0.999919
1.00039
0.999929
0.999672
1.00028
0.99935
0.999879
0.999673
0.999271
0.999624
0.999927
0.999616
0.999495
0.999868
0.999932
0.999671
0.999738
0.999988
0.999958
0.999794
0.999875
1.00006
1.00002
0.999881
0.99996
1.00011
1.00006
0.999935
0.999993
1.00012
0.999798
0.999237
0.999501
0.999822
0.999583
0.999541
0.999851
0.999704
0.999603
0.999931
0.99986
0.999665
0.999977
1.00003
0.999709
0.999933
1.00018
0.999783
0.999795
1.00037
1.00005
0.9996
1.0002
1.00042
0.999667
0.999567
0.999168
0.999514
0.999917
0.999672
0.999421
0.999749
0.999987
0.999646
0.99957
0.999975
1.00004
0.999738
0.999791
1.0001
0.999975
0.99974
0.999984
1.00015
0.99994
0.999936
1.00015
1.00006
0.999974
1.00009
0.999017
1.00001
0.999547
1
0.99977
0.999952
0.999426
0.999581
0.999988
0.99977
0.999769
1.00001
0.99986
0.999829
1.00009
0.999932
0.999739
1
1
1
1.00006
1.00053
0.999837
0.999636
1.00052
0.999498
0.999537
0.999243
1
0.999648
0.999833
0.999609
0.999386
0.999831
1.00012
0.999801
0.999708
1.0001
1.00011
0.99969
0.99986
1.00021
1
1
1
1.00018
0.999798
1.0002
1.0003
0.999828
0.999762
0.998379
0.999144
1
0.99942
0.999021
0.999989
0.999895
1
0.999923
1.00005
0.999876
0.999901
0.999983
0.999896
1.00006
1.00005
1
1
1
1.00007
0.999595
1.00039
1.00059
0.999621
0.998793
0.999456
0.999491
1
0.999636
0.999527
0.999344
0.999582
0.9997
0.999724
0.999985
1.00016
0.999807
0.999795
1.00028
1.00002
0.99961
1.00029
1.0005
0.999669
1.00011
1.00075
0.999842
0.999719
1.00069
0.998753
1.00022
0.999207
0.998045
0.999487
1.00022
0.999035
0.999104
1.00018
0.999965
0.999624
0.999907
1.00015
1.00004
0.99997
0.9999
1.00002
1.00032
1.00014
0.999713
1.00032
1.00063
0.99987
0.99969
1.00061
0.999943
0.998451
0.998803
0.999975
0.999047
0.998814
0.999745
1
0.999679
0.999643
1
0.999898
1.00006
1.00013
0.999728
1.00007
1.00052
0.999705
0.999755
1.0009
1.00013
0.999278
1.00075
1.00082
0.999167
0.999362
0.99806
0.999215
1.00023
0.998916
0.998275
0.999573
1.00014
0.998705
1
1.00029
1.00011
0.999777
0.999968
1.00018
1.00012
0.999978
0.999925
1.00021
1.00037
1.00004
0.999891
1.00033
1.00059
0.999953
0.998063
1.0006
0.999516
0.997644
0.999537
1.00036
0.998424
0.99881
0.999815
1
0.999723
1.00003
1.00004
0.999915
1.00026
0.999969
0.999595
1.00063
1.00049
0.99908
1.00035
1.00145
0.999255
0.999216
1.00172
0.999303
0.999853
0.998867
0.99851
0.999401
0.999673
0.998829
0.998806
0.9999
1.00005
0.999591
0.999843
1.00032
1.00002
0.999737
1.00009
1.00026
1.00006
0.999915
1.00023
1.00019
1.00017
1.00044
0.999992
0.999891
1.00047
0.996856
0.998736
1.00128
0.998427
0.997389
1.00048
1
0.999427
0.999333
1.00023
1.00004
0.999801
1.00015
0.999927
1.00003
1.00041
0.999479
0.999746
1.00158
0.99982
0.998509
1.00154
1.00161
0.998119
0.998144
0.998998
0.999528
0.998849
0.99896
0.999086
0.998844
1
0.9997
0.999845
1.00008
1
0.999674
1.00006
1.00036
0.999734
0.999724
1.00033
1.00031
0.99962
1.00045
1.00084
0.999346
1.00018
1.00168
0.997523
1.00204
0.999235
0.996162
0.999893
1.00116
0.997172
1
1.00049
1.00014
0.999072
1.00009
1.00046
0.999631
0.999811
1.00026
0.999763
1.00018
1
0.998308
1.0007
1.00247
0.998686
0.998338
1.00279
1.00083
0.997461
0.998027
1.00048
0.998666
0.997847
0.999832
1
0.999776
0.999935
0.999812
0.99991
1.00012
0.999895
0.999565
1.00023
1.00021
0.999631
1
1.0016
0.999478
0.998622
1.00232
1.00126
0.99717
0.999919
0.995102
0.998759
1.0019
0.998044
0.996853
1.00047
1
0.999087
0.99942
1.00077
0.999633
0.999223
1.00062
1.00031
0.999024
1
1
1
1.00178
0.999923
0.997857
1.00191
1.00264
0.997668
0.994998
1.00209
0.999928
0.995072
0.999235
1.00104
0.997824
0.998404
1.00045
0.999973
0.99979
0.999885
0.999892
0.999618
1.00039
1.00008
1
1
1
1
1
1
1
0.998984
1.00695
0.998893
1.00216
0.99753
0.995547
0.999485
1.00044
0.997883
0.998985
1.00064
0.999717
0.998871
1.00024
1.00092
0.998903
0.999264
1.00139
1
1
1
1
1.00515
1.01106
1.00188
1.00169
1.00815
1.00221
0.989707
0.996584
1.00452
1
0.996348
1.00046
1.00042
0.998371
1.00008
1
0.999798
0.999779
1.0009
0.999086
0.99863
1.00229
0.997924
0.99955
1.01014
1.00604
0.995539
1.0061
1.01484
0.998739
0.993489
0.995745
1.00006
0.999057
0.995604
0.997853
0.999555
0.998963
0.999884
1.0019
1.00115
1.00679
1
1.00071
1.00121
0.998369
1
0.999772
1.00354
1.00651
1.00205
1.00107
1.00812
1.00742
1.00421
0.993779
1.00934
0.998481
0.991755
0.999533
1.00053
0.99696
0.99832
1.00114
1.00111
1.00292
1.00811
1.00211
0.994928
0.999663
1.00318
1.00111
1.00677
1.00592
0.995587
1.00292
1.0151
1.00081
0.993109
1.02437

VECTORS velocity double
-3.63633e-06 1.50446e-06 0
-0.000153495 8.1863e-05 0
-0.000285206 3.65395e-06 0
-0.000285677 -2.49938e-05 0
-0.00027346 1.8605e-05 0
-0.000466458 9.35693e-05 0
-0.000572967 -2.70919e-05 0
-0.000509786 -2.99603e-05 0
-0.000520938 4.50735e-05 0
-0.000636791 1.73711e-05 0
-0.000593259 -4.31707e-05 0
-0.000529897 8.13991e-07 0
-0.000518882 6.56421e-06 0
-0.000530828 -5.38184e-06 0
-0.000505242 7.872e-06 0
-0.000495769 -4.18784e-06 0
-0.000452521 -7.17749e-06 0
-0.000477072 2.66888e-05 0
-0.00051738 3.15048e-05 0
-0.000437803 -7.42039e-05 0
-0.000286103 -6.04434e-06 0
-0.000294719 2.76673e-05 0
-0.000242206 -2.4298e-05 0
-0.000113646 -5.09128e-05 0
-4.19778e-06 9.37914e-06 0
-9.46374e-05 0.000133189 0
-0.000416598 0.000352341 0
-0.000630291 8.43894e-05 0
-0.000791637 3.30411e-05 0
-0.00114002 0.000260406 0
-0.00138106 0.000226382 0
-0.00131308 -3.9649e-05 0
-0.00145926 5.50894e-05 0
-0.00170935 0.000156676 0
-0.00165682 -4.32381e-05 0
-0.00145089 -0.000125502 0
-0.00153197 3.84782e-05 0
-0.00152786 -5.5083e-05 0
-0.00126653 -0.000109985 0
-0.00119335 6.53108e-05 0
-0.00142152 5.56216e-05 0
-0.00141269 -6.81586e-05 0
-0.00123021 1.78925e-05 0
-0.00121768 7.45692e-05 0
-0.00128897 -0.000179102 0
-0.00101653 -0.000211213 0
-0.000635529 -8.60353e-05 0
-0.000458598 -9.79161e-05 0
-0.000339625 -0.000231377 0
-9.19212e-05 -9.40763e-05 0
-0.000125708 0.000439402 0
-0.000319177 0.000514772 0
-0.000700202 0.000489797 0
-0.00139202 0.00044211 0
-0.00164272 0.000458099 0
-0.00158614 0.000226982 0
-0.00186389 0.000213332 0
-0.00231163 0.000281712 0
-0.00224857 9.05198e-05 0
-0.00215813 -8.64325e-05 0
-0.00226275 -0.000140803 0
-0.00208479 -0.000117617 0
-0.00179395 -0.000179884 0
-0.001838 -0.000161954 0
-0.00178914 3.6049e-05 0
-0.00158681 0.000106635 0
-0.00167078 1.78407e-05 0
-0.00185882 -4.75572e-05 0
-0.00161191 -7.40129e-05 0
-0.0014078 -0.000166211 0
-0.00140738 -0.000465682 0
-0.00108819 -0.000543376 0
-0.00051476 -0.000323032 0
-0.000256386 -0.000320868 0
-9.00874e-05 -0.000325117 0
6.09881e-05 0.000535604 0
-0.000428487 0.000988182 0
-0.00135412 0.00119552 0
-0.00176421 0.000807583 0
-0.00158378 0.000374552 0
-0.00177174 0.000458298 0
-0.00230052 0.000637904 0
-0.00257959 0.000487517 0
-0.00259773 3.35186e-05 0
-0.00272431 -7.02443e-05 0
-0.0027163 -0.00021662 0
-0.00233122 -0.000438034 0
-0.00199204 -0.000321673 0
-0.00197446 -0.000184275 0
-0.0018336 -0.00012262 0
-0.00161205 4.46525e-05 0
-0.0016962 0.000204503 0
-0.00199332 6.90178e-06 0
-0.0019146 -0.000286419 0
-0.0015077 -0.000380417 0
-0.00127035 -0.000542782 0
-0.00119946 -0.000883689 0
-0.000752631 -0.000868008 0
-0.000195421 -0.000597875 0
4.31777e-05 -0.000376529 0
-0.000151551 0.000655023 0
-0.00112868 0.00225877 0
-0.00170037 0.00150022 0
-0.00126855 0.000567517 0
-0.00122961 0.000452095 0
-0.00192728 0.00110622 0
-0.00236095 0.000903413 0
-0.00257755 0.000683169 0
-0.00305183 0.00034728 0
-0.00311184 -0.000215272 0
-0.00264251 -0.000557374 0
-0.00245087 -0.00065884 0
-0.00226999 -0.000601456 0
-0.00179545 -0.000435276 0
-0.00155784 -0.000205486 0
-0.0016765 2.59407e-05 0
-0.00147538 0.00020966 0
-0.00120008 0.000131407 0
-0.00145281 -0.000212413 0
-0.00165948 -0.000799314 0
-0.00130679 -0.000734934 0
-0.00101439 -0.000939986 0
-0.000842252 -0.00130472 0
-0.000465072 -0.00118666 0
-4.84095e-05 -0.000330109 0
-0.000385747 0.00144438 0
-0.000938805 0.00283739 0
-0.000968364 0.00138489 0
-0.000772926 0.000142699 0
-0.00069731 0.000789221 0
-0.00105748 0.00171144 0
-0.00192083 0.0016387 0
-0.00304897 0.00117186 0
-0.00350297 0.00049187 0
-0.00308974 -0.000519847 0
-0.00250463 -0.000948623 0
-0.00231113 -0.000883092 0
-0.00210852 -0.000930654 0
-0.00171428 -0.000749879 0
-0.00126921 -0.000454699 0
-0.000921105 -0.000170308 0
-0.000711723 5.98753e-05 0
-0.000589257 8.08454e-05 0
-0.000540909 -5.15304e-05 0
-0.000847406 -0.000504993 0
-0.00110102 -0.000921116 0
-0.000801339 -0.00139062 0
-0.000485771 -0.001356 0
-0.000561872 -0.00136435 0
-0.00026342 -0.000767405 0
-0.000104455 0.00217628 0
-0.000170453 0.00245567 0
-4.78163e-05 0.00145788 0
0 0 0
-0.00020707 0.00115844 0
-0.000863441 0.00222366 0
-0.00202018 0.003078 0
-0.00293632 0.0019552 0
-0.00271685 0.00012486 0
-0.00253783 -0.000851764 0
-0.00260131 -0.00125556 0
-0.0021567 -0.0012696 0
-0.00163774 -0.00117032 0
-0.00157896 -0.00105466 0
-0.00131361 -0.000955131 0
-0.000730863 -0.00055112 0
-0.000195295 -0.000284061 0
0 0 0
0 0 0
0 0 0
-0.000494535 -0.000640239 0
-0.000826792 -0.00179236 0
-0.000336626 -0.00153891 0
-8.2398e-05 -0.00115738 0
-2.92689e-05 -0.00115516 0
0.00040093 0.00174244 0
0.000216314 0.0029607 0
-0.000149811 0.00137702 0
0 0 0
-0.00011702 0.00151624 0
-0.00104204 0.0034498 0
-0.00176026 0.00361601 0
-0.0016495 0.00215801 0
-0.00141513 -7.80869e-05 0
-0.00139952 -0.000959251 0
-0.00156776 -0.00125987 0
-0.00172712 -0.00143425 0
-0.00184017 -0.00129252 0
-0.00172564 -0.00142134 0
-0.00122973 -0.00132063 0
-0.000629755 -0.001076 0
-0.000132703 -0.000745621 0
0 0 0
0 0 0
0 0 0
-3.86304e-05 -0.000348898 0
-0.000442377 -0.00124887 0
-0.000519882 -0.00220612 0
8.80306e-05 -0.00170581 0
0.000263398 -0.000815123 0
-0.000224485 0.00145219 0
-0.000346185 0.00359047 0
-7.74196e-05 0.00103299 0
0 0 0
-0.000102898 0.0018446 0
-0.000660749 0.00471373 0
-0.000772162 0.00321041 0
-0.000252748 0.00149936 0
0 0 0
-0.000461438 -0.000480318 0
-0.00123131 -0.000768268 0
-0.00190074 -0.00111472 0
-0.00204241 -0.00138815 0
-0.00145498 -0.0018074 0
-0.0011413 -0.00158131 0
-0.00129676 -0.00167648 0
-0.000633271 -0.0013012 0
0 0 0
0 0 0
0 0 0
5.60226e-05 -0.00021632 0
0.000128707 -0.000887647 0
-0.000118336 -0.00216294 0
-0.000465474 -0.00208041 0
-0.000216044 -0.000634307 0
-0.000280992 0.00221418 0
-7.36137e-05 0.00276387 0
0.000236958 0.00109873 0
0 0 0
-0.000802223 0.00266452 0
-0.00172214 0.00450528 0
-0.0015215 0.00333181 0
-0.00121544 0.00109739 0
-0.00117978 9.48861e-05 0
-0.00114304 -7.73118e-07 0
-0.0015445 0.000158144 0
-0.00208158 -0.000870477 0
-0.00199733 -0.00165739 0
-0.00207371 -0.00188257 0
-0.0021183 -0.00181427 0
-0.00180135 -0.00195439 0
-0.00188569 -0.00132882 0
-0.00180989 -0.000718436 0
-0.00100356 -0.000211351 0
-0.000812552 -1.15302e-05 0
-0.000642299 -0.000257201 0
5.82322e-05 -0.00179684 0
0.000325392 -0.00140673 0
-0.00036484 -0.00147337 0
-0.000350277 -0.00154225 0
0.000297482 0.0022075 0
0.000588441 0.00217065 0
0.000229747 0.00164864 0
-0.00133271 0.00123451 0
-0.00203867 0.00355304 0
-0.00208227 0.00451274 0
-0.00259729 0.00364555 0
-0.00224873 0.000593482 0
-0.00127922 -0.000384025 0
-0.00165203 0.000452351 0
-0.00230067 0.000382508 0
-0.00161753 -0.00108463 0
-0.00140638 -0.00149401 0
-0.00244508 -0.00140698 0
-0.00302521 -0.00182207 0
-0.00278181 -0.00191947 0
-0.00304088 -0.0009483 0
-0.00359649 -0.00126427 0
-0.00288379 -0.000821463 0
-0.00168139 -0.000629113 0
-0.00110461 -0.000487652 0
-0.00116828 -0.00213391 0
-0.000528082 -0.00161314 0
0.000322757 -0.00121259 0
0.000304623 -0.00148529 0
0.000430804 0.0011271 0
7.36732e-05 0.00346415 0
-0.000960059 0.00236606 0
-0.00141898 0.00203005 0
-0.00251565 0.00427655 0
-0.00361792 0.00527187 0
-0.00180717 0.00192137 0
0 0 0
-0.000977163 0.000164361 0
-0.000989219 0.000417782 0
0 0 0
-0.00102304 -0.00059404 0
-0.00247853 -0.000684357 0
-0.00258547 -0.00108728 0
-0.00264096 -0.00134752 0
-0.0037537 -0.00137071 0
-0.00403125 -0.00126396 0
-0.0034329 -0.000910074 0
-0.00376129 -0.00114529 0
-0.00359123 -0.00208908 0
-0.00192674 -0.00137307 0
-0.0014376 -0.00166591 0
-0.00137315 -0.00297261 0
-0.000329276 -0.00272961 0
0.000310395 -0.000713721 0
-0.000640889 0.00140679 0
-0.000818288 0.00381225 0
-0.000647531 0.00323311 0
-0.00246786 0.00326924 0
-0.00369513 0.00482522 0
-0.00208405 0.00411455 0
-0.000847404 0.00031711 0
-0.00201134 0.000386309 0
-0.0014025 -0.00014811 0
0 0 0
-0.000531814 0.000509383 0
-0.00168158 0.000677775 0
-0.00238623 -2.6601e-05 0
-0.00247364 -0.000963761 0
-0.00301771 -0.000638143 0
-0.00413385 -0.000619754 0
-0.00441762 -0.00145409 0
-0.00386477 -0.0010175 0
-0.00376267 -0.00125848 0
-0.00408109 -0.00233537 0
-0.00322966 -0.00259992 0
-0.00154248 -0.00246427 0
-0.00109417 -0.0024596 0
-0.00188125 -0.00298277 0
-0.000959384 -0.00139934 0
-0.000249073 0.00278321 0
-0.000342548 0.00245667 0
-0.000865318 0.00435509 0
-0.00283146 0.00597057 0
-0.00337618 0.00426193 0
-0.00321152 0.00264714 0
-0.00491851 0.00209289 0
-0.0050253 -2.36342e-05 0
-0.00337427 -0.00171487 0
-0.00314616 -0.000450577 0
-0.00328288 0.00138029 0
-0.00283981 0.00105773 0
-0.00211068 -7.59458e-05 0
-0.00286421 -0.000166307 0
-0.00370889 -8.3827e-05 0
-0.00311925 -0.000511081 0
-0.00371285 -0.000467159 0
-0.00518428 -0.00141126 0
-0.0042756 -0.00210392 0
-0.0033324 -0.00172818 0
-0.00407575 -0.00338024 0
-0.00341667 -0.00509938 0
-0.00117272 -0.0025817 0
-0.000537711 -0.00254238 0
-0.000212619 -0.00349013 0
0.000512365 0.00240436 0
-0.000555958 0.00395503 0
-0.00246457 0.00580418 0
-0.00241837 0.00607677 0
-0.00224524 0.00474399 0
-0.00373619 0.00414849 0
-0.00439273 0.00295169 0
-0.00484466 -0.000397346 0
-0.00495719 -0.00226839 0
-0.00433474 -0.00095754 0
-0.00385509 0.0010229 0
-0.00304504 7.22631e-05 0
-0.00248635 -0.000437946 0
-0.00252683 0.000373143 0
-0.00270474 0.000122239 0
-0.00286509 -0.000371646 0
-0.00374062 0.000628574 0
-0.0046844 -0.0011891 0
-0.0047394 -0.00221752 0
-0.00365118 -0.00294032 0
-0.00287987 -0.00290864 0
-0.00384222 -0.00482893 0
-0.00293514 -0.00499798 0
-0.000206983 -0.00392572 0
0.000782675 -0.00234059 0
-3.46435e-05 0.00167275 0
-0.00137384 0.00703612 0
-0.00216961 0.00617702 0
-0.00160503 0.0045351 0
-0.00218345 0.00624428 0
-0.00338491 0.00586332 0
-0.00180294 0.000937845 0
0 0 0
-0.00179656 -0.00124705 0
-0.0029522 -0.00109484 0
-0.00142778 -0.000284266 0
-0.000993696 -0.00033155 0
-0.00170048 0.000127949 0
-0.00135784 -7.19248e-06 0
-0.00132561 0.000378044 0
-0.00306043 0.00101383 0
-0.00314365 0.000422846 0
-0.00170946 -0.000786453 0
-0.00394634 -0.000637273 0
-0.0059874 -0.00498848 0
-0.00384354 -0.00355969 0
-0.00277075 -0.00374655 0
-0.00344952 -0.00681969 0
-0.00288923 -0.0072381 0
-0.000508916 -0.00230586 0
-0.00157972 0.004038 0
-0.00172124 0.00578041 0
-0.000100075 0.00591325 0
-0.00191527 0.00664943 0
-0.00262454 0.00575755 0
-0.000211346 0.00367949 0
0.000645234 0.000549389 0
0 0 0
0.000276436 -0.000290631 0
5.02645e-05 -0.000955404 0
-0.000208265 -0.00118412 0
0 0 0
-0.000298864 0.000438699 0
-0.00104986 0.000295104 0
-0.00162752 0.000929408 0
-0.00150935 0.0014751 0
-0.00116523 -0.000369394 0
-0.00131876 0.000153017 0
-0.00182882 0.000337346 0
-0.00329836 -0.00280126 0
-0.004989 -0.00447941 0
-0.00360023 -0.00639828 0
-0.00193655 -0.00466575 0
-0.00385372 -0.00644952 0
-0.00211594 -0.00591489 0
0.000724124 0.00540205 0
0.000551109 0.00425609 0
-0.00188129 0.00733968 0
-0.00412677 0.00886578 0
-0.00303158 0.00405756 0
-0.00106941 0.00127986 0
-0.000234784 0.0012874 0
0 0 0
-0.000221586 -0.0003668 0
-0.00050304 -0.00079999 0
-0.00115149 -0.000497521 0
-0.00100967 -0.000153246 0
-0.000122144 0.000119138 0
-0.000636114 0.0014864 0
-0.000974761 0.00132851 0
0.000112823 0.000241983 0
-0.000154686 -0.000110485 0
-0.000731043 0.000434431 0
0 0 0
-0.000172281 0.000232058 0
-0.0036322 -0.00293199 0
-0.00653987 -0.00877593 0
-0.00354904 -0.00577319 0
-0.00025119 -0.00709846 0
0.00115129 -0.00810564 0
0.000863568 0.00295158 0
-0.00232861 0.00992723 0
-0.00609156 0.00968453 0
-0.00401951 0.00580646 0
-0.0023036 0.00364949 0
-0.0027243 0.0012214 0
-0.00129365 -0.00108413 0
0 0 0
-0.000552167 0.000646205 0
-0.00108604 -0.00078461 0
-0.00140449 -0.000257761 0
-0.00210951 -0.000472183 0
-0.00237034 -4.09046e-05 0
-0.000832042 0.000478762 0
0.000479665 0.000798244 0
8.49003e-05 0.000613474 0
-7.65962e-05 0.000192946 0
1.43703e-05 -3.50906e-05 0
0 0 0
8.43755e-05 0.000620782 0
-0.000151038 -0.000141986 0
-0.00325059 -0.00409141 0
-0.00609046 -0.00953228 0
-0.00352197 -0.0130283 0
0.000930754 -0.00516811 0
-0.00198581 0.00452107 0
-0.00477804 0.0138329 0
-0.00402932 0.00911462 0
-0.00529616 0.00560347 0
-0.00960579 0.00448027 0
-0.00938969 -2.78456e-05 0
-0.00374685 -0.00507831 0
0 0 0
-0.00176735 0.00215744 0
-0.00351465 0.000363503 0
-0.00239534 -0.00107203 0
-0.00126869 0.00016865 0
-0.0017343 0.000123437 0
-0.00147708 -0.00109463 0
-0.000672542 -0.000671511 0
-6.21354e-05 0.00168644 0
0 0 0
0 0 0
0 0 0
-2.98034e-05 5.09692e-05 0
0.000683052 0.000139321 0
0.000294145 -0.000243693 0
-0.00581955 -0.00599768 0
-0.0104513 -0.0166337 0
-0.00320794 -0.00957859 0
-0.00255958 0.0111974 0
-0.0023791 0.00898524 0
-0.00163249 0.0102915 0
-0.00822129 0.0136623 0
-0.00887698 0.00291369 0
-0.00566607 -0.00273639 0
-0.00881698 -0.0065227 0
-0.00907007 -0.00244291 0
-0.00311221 -0.000136343 0
-0.00161612 0.00225987 0
-0.00440518 -0.00202367 0
-0.00360758 -0.000719851 0
-0.00120765 -0.00161112 0
-0.000375228 0.000362195 0
-0.00196725 -0.000911483 0
-0.000892689 6.2195e-05 0
0 0 0
0 0 0
0 0 0
0 0 0
0 0 0
0 0 0
0 0 0
-0.00486477 -0.0107614 0
-0.00373868 -0.0207858 0
0.00358833 0.00963478 0
-0.0010574 0.0133764 0
-0.0108714 0.0150896 0
-0.0105048 0.0138881 0
-0.0054094 0.000804865 0
-0.00403672 -0.00188029 0
-0.00850958 -0.00226762 0
-0.0107771 -0.00500943 0
-0.00774819 -0.0036536 0
-0.00434296 0.00172312 0
-0.00307545 -0.00114593 0
-0.00193526 -0.00214293 0
-0.000736785 -0.00432656 0
0.00201836 0.000138552 0
0.000812815 0.000924815 0
0.000265753 -0.00125487 0
0 0 0
0 0 0
0 0 0
0 0 0
-0.00389556 0.00342789 0
-0.0112911 5.43587e-05 0
-0.00793739 -0.00162979 0
0.00284025 -0.0165677 0
0.00807135 -0.0174911 0
-0.0027012 0.00775154 0
-0.0133486 0.0294639 0
-0.0103458 0.0120764 0
0.000118923 0.00534812 0
0 0 0
-0.00185971 0.000259507 0
-0.00165339 0.00015244 0
-0.00315168 -0.00407817 0
-0.00599178 -0.00529983 0
-0.00284723 -0.00485497 0
0 0 0
0.000523936 -0.00444156 0
-0.00219969 -0.00254189 0
-0.00167654 -0.00386199 0
0.00135761 0.000955456 0
0.000197882 0.00263602 0
-0.00500411 -0.000184369 0
-0.00143909 -0.00172957 0
-0.000479234 0.00193769 0
-0.00719272 0.00575211 0
-0.00779933 0.00634148 0
-0.00468621 0.00151928 0
-0.00514153 -0.00457284 0
-0.00821615 -0.0310343 0
-0.000980895 -0.00978768 0
-0.00640831 0.0211767 0
-0.00709974 0.0232046 0
0.00588029 0.00245923 0
0.0161156 3.92778e-05 0
0.0155178 0.00405506 0
0.0119245 -0.00040906 0
0.015522 -0.000903129 0
0.0164229 -0.000914861 0
0.0101044 -0.00141661 0
0.00560207 -0.00651776 0
0.0106531 -0.00364928 0
0.0078581 0.000757938 0
0 0 0
0.00245896 -0.00676817 0
0.00415773 4.48681e-05 0
0.00275533 0.0070043 0
0 0 0
0.00411138 -0.005823 0
0.00442283 0.00221572 0
0.00414432 0.00904687 0
0.00561621 -0.000270117 0
0.0123652 0.00180908 0
0.00754824 -0.000250206 0
-0.00772158 -0.0223334 0
-0.00455325 -0.0223023 0
0.0234842 0.0152328 0
0.0514917 0.00351313 0
0.0541466 -0.00199217 0
0.0488046 -0.00177973 0
0.0522787 0.00378928 0
0.0558562 -0.0014638 0
0.052494 -0.0011549 0
0.0510091 -5.16467e-05 0
0.0531313 0.00108071 0
0.0519269 -0.00199031 0
0.0434487 -0.00382171 0
0.0439017 0.00365399 0
0.0491375 -0.000775646 0
0.0444762 -0.00342118 0
0.0380083 -0.000372863 0
0.0445359 0.00371248 0
0.048996 -0.000636337 0
0.0443166 -0.0037525 0
0.040041 0.00220186 0
0.0487087 0.00429628 0
0.0522313 -0.00141469 0
0.0473157 -0.000962656 0
0.0532169 0.00442913 0
0.050608 -0.00389012 0
0.0329801 -0.0189699 0


