# vtk DataFile Version 4.0
SiwiRVisFile
ASCII
DATASET STRUCTURED_POINTS
DIMENSIONS 25 25 1
ORIGIN 0 0 0
SPACING 1 1 1
POINT_DATA 625

SCALARS flags double 1
LOOKUP_TABLE default
1
1
1
1
1
1
1
1
1
1
1
1
1
1
1
1
1
1
1
1
1
1
1
1
1
1
1
1
1
1
1
1
1
1
1
1
1
1
1
1
1
1
1
1
1
1
1
1
1
1
1
1
1
1
1
1
1
1
1
1
1
1
1
1
1
1
1
1
1
1
1
1
1
1
1
1
1
1
1
1
1
1
1
1
1
1
1
1
1
1
1
1
1
1
1
1
1
1
1
1
1
1
1
1
1
1
1
1
1
1
1
1
1
1
1
1
1
1
1
1
1
1
1
1
1
1
1
1
1
1
1
1
1
1
1
1
1
1
1
1
1
1
1
1
1
1
1
1
1
1
1
1
1
1
1
1
1
1
1
1
1
1
1
1
1
1
1
1
1
1
1
1
1
1
1
1
1
1
1
1
1
1
1
1
1
1
1
1
1
1
1
1
1
1
1
1
1
1
1
1
1
1
1
1
1
1
1
1
1
1
1
1
1
1
1
1
1
1
1
1
1
1
1
1
1
1
1
1
1
1
1
1
1
1
1
1
1
1
1
1
1
1
1
1
1
1
1
1
1
1
1
1
1
1
1
1
1
1
1
1
1
1
1
1
1
1
1
1
1
1
1
1
1
1
1
1
1
1
1
1
1
1
1
1
1
1
1
1
1
1
1
1
1
1
1
1
1
1
1
1
1
1
1
1
1
1
1
1
1
1
1
1
1
1
1
1
1
1
1
1
1
1
1
1
1
1
1
1
1
1
1
1
1
1
1
1
1
1
1
1
1
1
1
1
1
1
1
1
1
1
1
1
1
1
1
1
1
1
1
1
1
1
1
1
1
1
1
1
1
1
1
1
1
1
1
1
1
1
1
1
1
1
1
1
1
1
1
1
1
1
1
1
1
1
1
1
1
1
1
1
1
1
1
1
1
1
1
1
1
1
1
1
1
1
1
1
1
1
1
1
1
1
1
1
1
1
1
1
1
1
1
1
1
1
1
1
1
1
1
1
1
1
1
1
1
1
1
1
1
1
1
1
1
1
1
1
1
1
1
1
1
1
1
1
1
1
1
1
1
1
1
1
1
1
1
1
1
1
1
1
1
1
1
1
1
1
1
1
1
1
1
1
1
1
1
1
1
1
1
1
1
1
1
1
1
1
1
1
1
1
1
1
1
1
1
1
1
1
1
1
1
1
1
1
1
1
1
1
1
1
1
1
1
1
1
1
1
1
1
1
1
1
1
1
1
1
1
1
1
1
1
1
1
1
1
1
1
1
1
1
1
1
1
1
1
1
1
1
1
1
1
1
1
1
1
1
1
1
1
1
1
1
1
1
1
1
1
1
1
1
1
1
1
1
1
1
1
1
1
1
1
1
1
1
1
1
1
1
1
1
1
1
1
1
1
1
1
1
1
1
1
1
1
1
1

SCALARS density double 1
LOOKUP_TABLE default
0.999671
0.999701
0.99982
0.999701
0.999625
0.999854
0.999863
0.999584
0.999728
1.00003
0.999739
0.999558
0.999991
0.99999
0.999547
0.999772
1.00013
0.999736
0.999592
1.00009
0.999995
0.999561
0.999893
1.00017
0.999702
0.99998
0.999448
0.999622
1.00004
0.99973
0.999515
0.999849
0.999935
0.99966
0.999706
0.999904
0.999836
0.999748
0.999793
0.999843
0.999872
0.999825
0.999745
0.999867
0.999975
0.999801
0.999718
0.999987
0.999995
0.999679
0.999669
0.999866
0.999715
0.999671
0.999849
0.999758
0.999641
0.999887
0.999876
0.999591
0.999821
1.00003
0.999661
0.999664
1.00008
0.999846
0.999541
0.99998
1.00008
0.999555
0.999766
1.00023
0.99977
0.999518
1.00013
0.999545
1.00006
0.999855
0.999434
0.999755
1.00004
0.999715
0.999558
0.999908
0.99996
0.999672
0.999711
0.999947
0.999895
0.999707
0.999778
0.999943
0.999878
0.999741
0.99982
0.999945
0.999897
0.999785
0.999833
0.999948
0.999989
0.999441
0.999687
0.999973
0.99972
0.999657
0.999939
0.999768
0.999648
0.999951
0.999853
0.99964
0.999935
0.999961
0.999623
0.999832
1.00007
0.999657
0.99965
1.00021
0.999896
0.999443
1.00004
1.00026
0.999504
0.999784
0.999381
0.999697
1.00008
0.999809
0.999522
0.999824
1.00006
0.99969
0.99958
0.999971
1.00001
0.999683
0.999721
1.00003
0.999875
0.999625
0.999858
1
0.999774
0.999779
0.999984
0.999885
0.999811
0.999938
0.999238
1.0002
0.999747
1
0.999876
1.00005
0.999516
0.999641
1.00002
0.999783
0.99976
0.999978
0.999808
0.999764
1.00001
0.999829
0.999637
1
1
1
0.999884
1.00036
0.999664
0.999467
1.00034
0.999703
0.999757
0.999467
1
0.999741
0.999931
0.999706
0.99945
0.999864
1.00013
0.999776
0.99967
1.00005
1.00004
0.999599
0.999769
1.00012
1
1
1
0.999988
0.999615
1.00004
1.00011
0.999639
0.999964
0.998593
0.999358
1
0.999531
0.999114
1.00006
0.999977
1
0.999915
1.00004
0.999843
0.999847
0.999908
0.999811
0.999966
0.999945
1
1
1
0.999886
0.999417
1.00021
1.0004
0.999434
0.998998
0.999642
0.999683
1
0.999749
0.99964
0.999433
0.999661
0.999742
0.999714
0.999972
1.00012
0.999747
0.999731
1.0002
0.999917
0.999497
1.00017
1.00034
0.999493
0.99994
1.00056
0.999635
0.999532
1.00051
0.998947
1.00041
0.999383
0.99819
0.999608
1.00034
0.999145
0.999176
1.00021
0.999975
0.999604
0.999863
1.0001
0.99998
0.999885
0.999796
0.99991
1.00019
0.999984
0.999541
1.00014
1.00043
0.999668
0.999488
1.00041
1.00012
0.998625
0.998966
1.00014
0.999184
0.998923
0.999864
1
0.999694
0.999698
1
0.999863
1.00002
1.00006
0.999645
0.99998
1.0004
0.999554
0.999609
1.00074
0.999926
0.999075
1.00056
1.0006
0.998935
0.999535
0.998228
0.999377
1.00039
0.99906
0.998407
0.999687
1.00023
0.998786
1
1.00029
1.00009
0.999735
0.999912
1.00011
1.00002
0.999863
0.999792
1.00005
1.0002
0.999848
0.999685
1.00011
1.00037
0.999721
0.998226
1.00078
0.999688
0.99779
0.99968
1.0005
0.998535
0.998908
0.999907
1.00005
0.999725
1.00002
1.00001
0.999877
1.00019
0.999867
0.999491
1.00051
1.00032
0.998887
1.00017
1.00124
0.999006
0.998988
1.0015
0.999479
1.00002
0.999032
0.998672
0.999555
0.999815
0.998957
0.998908
0.999965
1.00009
0.999613
0.999857
1.0003
0.999975
0.999684
1.00002
1.00015
0.999921
0.999761
1.00005
0.999976
0.999939
1.0002
0.99974
0.999636
1.00065
0.997022
0.998903
1.00146
0.998588
0.997526
1.00063
1
0.999482
0.9994
1.00027
1.00004
0.999781
1.00012
0.999885
0.999972
1.00031
0.999348
0.999603
1.00139
0.999576
0.998275
1.00132
1.00133
0.997835
0.998317
0.999187
0.999711
0.999016
0.99913
0.999258
0.999007
1
0.999771
0.9999
1.00013
1
0.999675
1.00007
1.00033
0.999675
0.999667
1.00024
1.00014
0.999401
1.00023
1.00059
0.99907
0.999921
1.00141
0.997708
1.00224
0.999421
0.996333
1.00007
1.00135
0.997345
1
1.00055
1.00021
0.999165
1.00017
1.00049
0.999643
0.999818
1.00024
0.99971
1.0001
1
0.998063
1.00048
1.0022
0.998386
0.998075
1.00253
1.00103
0.997642
0.998217
1.00069
0.998854
0.998026
1.00003
1
0.99986
1.00004
0.999906
0.999974
1.00019
0.999936
0.999591
1.00024
1.00018
0.999572
1
1.00134
0.999179
0.998352
1.00207
1.00096
0.99686
1.00013
0.995306
0.998969
1.0021
0.998235
0.997045
1.00068
1
0.999225
0.999543
1.00087
0.999721
0.999313
1.00069
1.00034
0.999068
1
1
1
1.0015
0.999627
0.997584
1.00164
1.00233
0.997353
0.995204
1.00232
1.00015
0.995271
0.999456
1.00126
0.998016
0.998603
1.00063
1.0001
0.999919
0.999987
0.999966
0.999711
1.00048
1.00014
1
1
1
1
1
1
1
0.998736
1.0067
0.999122
1.0024
0.99776
0.99578
0.999714
1.00065
0.998083
0.999199
1.00082
0.999876
0.999003
1.00035
1.00101
0.998976
0.999383
1.00151
1
1
1
1
1.00499
1.01088
1.00166
1.00148
1.00795
1.00247
0.989951
0.996821
1.00477
1
0.996547
1.0007
1.00063
0.998545
1.00029
1
0.99991
0.99991
1.00099
0.999161
0.998777
1.00237
0.997845
0.999332
1.00995
1.00594
0.995304
1.00588
1.01468
0.998602
0.993741
0.99599
1.00033
0.999332
0.995845
0.998089
0.999766
0.999164
1.00014
1.00216
1.00133
1.00699
1
1.00087
1.00129
0.998429
1
0.999639
1.00349
1.00633
1.0018
1.00091
1.00799
1.00719
1.00395
0.99402
1.0096
0.99875
0.992027
0.999779
1.00078
0.997164
0.998547
1.00138
1.00134
1.00314
1.00836
1.00228
0.995035
0.999859
1.00321
1.00105
1.00657
1.00578
0.995453
1.00267
1.01501
1.00052
0.993039
1.02419

VECTORS velocity double
-5.13082e-07 3.77888e-06 0
-0.000140643 8.14649e-05 0
-0.000260851 4.81249e-06 0
-0.000254138 -2.24327e-05 0
-0.00023856 2.06861e-05 0
-0.000427248 9.42367e-05 0
-0.000531242 -2.44033e-05 0
-0.000468313 -2.98095e-05 0
-0.000475996 4.26977e-05 0
-0.00058529 1.33312e-05 0
-0.00053817 -4.64758e-05 0
-0.000470299 -7.4846e-06 0
-0.000448082 -4.07667e-06 0
-0.000455555 -1.18627e-05 0
-0.000433214 8.06534e-07 0
-0.00042553 -1.32748e-05 0
-0.000387208 -1.32838e-05 0
-0.00041759 1.80677e-05 0
-0.000462933 2.55934e-05 0
-0.000395748 -7.7603e-05 0
-0.000254447 -1.15087e-05 0
-0.000266963 2.13563e-05 0
-0.000221506 -2.66604e-05 0
-0.000101454 -5.62095e-05 0
1.21295e-06 5.76384e-06 0
-8.63095e-05 0.000130652 0
-0.000393888 0.000345679 0
-0.00059838 8.2887e-05 0
-0.000752776 3.53024e-05 0
-0.00109571 0.000263499 0
-0.0013383 0.000231078 0
-0.00127678 -3.19946e-05 0
-0.00142414 5.28668e-05 0
-0.00166959 0.00014654 0
-0.00160981 -5.84912e-05 0
-0.00138694 -0.000147631 0
-0.00144517 4.7506e-06 0
-0.00142652 -8.6829e-05 0
-0.00115684 -0.000134524 0
-0.00107088 3.90902e-05 0
-0.00129215 3.3148e-05 0
-0.00128623 -8.48169e-05 0
-0.00111541 2.01877e-06 0
-0.00111729 6.1287e-05 0
-0.00120152 -0.000186894 0
-0.000946356 -0.000225772 0
-0.000584938 -0.000106072 0
-0.000423756 -0.000114745 0
-0.000313679 -0.000254465 0
-7.95875e-05 -0.000106854 0
-0.000122321 0.000433478 0
-0.000311873 0.000512576 0
-0.000694631 0.000492917 0
-0.00138623 0.000447618 0
-0.00164062 0.000473398 0
-0.0015969 0.00024771 0
-0.00188779 0.000231316 0
-0.00234616 0.000286033 0
-0.00228908 7.65352e-05 0
-0.00219121 -0.000120636 0
-0.00227151 -0.000195398 0
-0.00206574 -0.000182949 0
-0.00174983 -0.00024005 0
-0.0017611 -0.000224663 0
-0.00168575 -1.90065e-05 0
-0.00148384 6.86079e-05 0
-0.00156972 -1.69425e-05 0
-0.00176622 -6.39323e-05 0
-0.00153689 -9.18737e-05 0
-0.00133879 -0.000180534 0
-0.00134667 -0.000476419 0
-0.00104161 -0.000557249 0
-0.000481116 -0.000339819 0
-0.000237425 -0.000341901 0
-8.44393e-05 -0.000333343 0
6.30529e-05 0.000533686 0
-0.000428509 0.000998981 0
-0.00136162 0.00120944 0
-0.00177369 0.00082156 0
-0.00159956 0.000405598 0
-0.00180241 0.000498469 0
-0.00235042 0.000674566 0
-0.00265154 0.000508646 0
-0.00267908 1.89101e-05 0
-0.00279473 -0.000126412 0
-0.00276582 -0.000302688 0
-0.0023516 -0.000540574 0
-0.00197361 -0.000428635 0
-0.00192057 -0.00029127 0
-0.00176148 -0.000200119 0
-0.00152675 -1.65277e-05 0
-0.00159182 0.000156819 0
-0.00188238 -1.71411e-05 0
-0.00181751 -0.000307017 0
-0.00143658 -0.000407891 0
-0.00122465 -0.000565817 0
-0.00116772 -0.000915121 0
-0.000727131 -0.00090888 0
-0.000176365 -0.000640901 0
5.3261e-05 -0.000403389 0
-0.000151806 0.000662688 0
-0.0011326 0.00227962 0
-0.00170068 0.00151982 0
-0.00125718 0.000590432 0
-0.00121754 0.000493306 0
-0.00193888 0.00117714 0
-0.00241553 0.00097628 0
-0.00266765 0.00072208 0
-0.00315267 0.000329922 0
-0.0032018 -0.000288515 0
-0.0027085 -0.000675511 0
-0.00248374 -0.000805156 0
-0.00226572 -0.000759089 0
-0.00175958 -0.000577444 0
-0.00149222 -0.000317145 0
-0.00156389 -8.84005e-05 0
-0.00133636 0.000143181 0
-0.00106809 8.55366e-05 0
-0.00133813 -0.000220408 0
-0.00157728 -0.000802886 0
-0.00125201 -0.000746219 0
-0.00097576 -0.000967696 0
-0.000817673 -0.00133726 0
-0.000451451 -0.00122709 0
-4.27014e-05 -0.000347701 0
-0.000382502 0.00145766 0
-0.000938715 0.00286675 0
-0.000951745 0.00138785 0
-0.000724887 0.000156852 0
-0.000659952 0.00085573 0
-0.00106566 0.00183025 0
-0.00197052 0.00175634 0
-0.00311624 0.00122981 0
-0.00357586 0.000475662 0
-0.00316761 -0.000606803 0
-0.00257141 -0.00110134 0
-0.00235194 -0.0010666 0
-0.00211533 -0.0011285 0
-0.00167847 -0.000934379 0
-0.001205 -0.000614056 0
-0.000842319 -0.000324508 0
-0.000604764 -4.71302e-05 0
-0.000489236 5.01808e-05 0
-0.000476093 -5.22946e-05 0
-0.000803697 -0.000502904 0
-0.00107693 -0.000945154 0
-0.000783979 -0.00145217 0
-0.000469052 -0.00142004 0
-0.000547299 -0.00144653 0
-0.000253089 -0.00081556 0
-0.000104872 0.00219406 0
-0.000155609 0.00247942 0
-3.2173e-05 0.0014587 0
0 0 0
-0.000187153 0.00124368 0
-0.000841213 0.00238458 0
-0.00202542 0.00321516 0
-0.00295355 0.00202384 0
-0.00274235 0.000114123 0
-0.00256908 -0.000943492 0
-0.00262933 -0.00142183 0
-0.0021731 -0.00148361 0
-0.00164253 -0.00140406 0
-0.00156812 -0.00127968 0
-0.0012721 -0.00115384 0
-0.000660601 -0.000716401 0
-0.000154066 -0.000392864 0
0 0 0
0 0 0
0 0 0
-0.000494293 -0.000662373 0
-0.000813525 -0.00185186 0
-0.000313413 -0.00159705 0
-6.51021e-05 -0.00122294 0
-2.49654e-05 -0.0011836 0
0.000408497 0.0017569 0
0.000225049 0.00298329 0
-0.000149077 0.00139738 0
0 0 0
-0.000103626 0.00158126 0
-0.00102332 0.00361836 0
-0.00175543 0.00376309 0
-0.00164504 0.00222723 0
-0.00141251 -8.06142e-05 0
-0.00140924 -0.00104535 0
-0.00158526 -0.00142347 0
-0.00173446 -0.00166644 0
-0.0018335 -0.00154216 0
-0.00171564 -0.00165995 0
-0.00120833 -0.00154937 0
-0.000601636 -0.00125392 0
-0.000119065 -0.000819154 0
0 0 0
0 0 0
0 0 0
-4.33732e-05 -0.000419625 0
-0.000430766 -0.0013727 0
-0.000492814 -0.00233366 0
0.000111936 -0.00181236 0
0.00027623 -0.000885888 0
-0.000223277 0.0014592 0
-0.000347476 0.0036298 0
-8.0709e-05 0.00105424 0
0 0 0
-0.00011207 0.00190108 0
-0.000659691 0.00486269 0
-0.000725795 0.00336209 0
-0.000216321 0.00158786 0
0 0 0
-0.000433069 -0.000581873 0
-0.00119961 -0.000935418 0
-0.00190985 -0.00134546 0
-0.00206406 -0.0016486 0
-0.00147115 -0.00205884 0
-0.00115496 -0.00182632 0
-0.00131283 -0.00186033 0
-0.000642229 -0.00136614 0
0 0 0
0 0 0
0 0 0
8.94037e-05 -0.00029317 0
0.000184501 -0.00100022 0
-9.00297e-05 -0.00225727 0
-0.000456787 -0.0021539 0
-0.000214086 -0.000665017 0
-0.000283729 0.002228 0
-6.48079e-05 0.00279926 0
0.000248027 0.00112356 0
0 0 0
-0.000793423 0.00272164 0
-0.00169279 0.00461894 0
-0.00147413 0.00345812 0
-0.00112717 0.00116755 0
-0.00104054 8.38529e-05 0
-0.00103157 -7.40577e-05 0
-0.0014882 8.71981e-06 0
-0.00206845 -0.00104972 0
-0.00202518 -0.00190811 0
-0.00211875 -0.00214075 0
-0.00217498 -0.00205142 0
-0.00186777 -0.00214608 0
-0.0019417 -0.00143048 0
-0.00182171 -0.000756488 0
-0.000975187 -0.000238822 0
-0.000745094 -7.35632e-05 0
-0.000559129 -0.00039865 0
0.000113399 -0.00195692 0
0.000358959 -0.00152101 0
-0.000344245 -0.00160181 0
-0.000340721 -0.00163115 0
0.000303929 0.0022157 0
0.000612398 0.00218564 0
0.000275105 0.00167368 0
-0.00129433 0.0012494 0
-0.0020392 0.00360787 0
-0.0020975 0.00460292 0
-0.00256423 0.00370777 0
-0.00215374 0.000603959 0
-0.00118204 -0.000398326 0
-0.00154103 0.000377526 0
-0.00222104 0.000311914 0
-0.00163028 -0.0012182 0
-0.00145426 -0.00172573 0
-0.00251309 -0.00165531 0
-0.00311584 -0.00204315 0
-0.00288449 -0.00211464 0
-0.00313171 -0.00108093 0
-0.0036468 -0.00134619 0
-0.00287812 -0.000870298 0
-0.00163304 -0.000706928 0
-0.00104041 -0.000574816 0
-0.00112797 -0.00223988 0
-0.000502856 -0.00168615 0
0.000346441 -0.00130099 0
0.000313778 -0.00151929 0
0.000437738 0.00111292 0
0.000109048 0.00345348 0
-0.000916283 0.00239009 0
-0.0014018 0.00207476 0
-0.00251716 0.00434917 0
-0.00361329 0.00536452 0
-0.00180003 0.00193964 0
0 0 0
-0.000907316 0.000100693 0
-0.000918022 0.000366489 0
0 0 0
-0.00101701 -0.000714522 0
-0.00248655 -0.000879054 0
-0.00264112 -0.00130558 0
-0.00273258 -0.00155614 0
-0.00386363 -0.00157036 0
-0.00413472 -0.00142872 0
-0.00351053 -0.00106103 0
-0.00379996 -0.00129444 0
-0.00359795 -0.00222968 0
-0.0019226 -0.00150745 0
-0.00144345 -0.00179804 0
-0.00136724 -0.00310508 0
-0.00031646 -0.00286483 0
0.000318166 -0.000782992 0
-0.000641461 0.00137916 0
-0.00080892 0.00378142 0
-0.000635605 0.00326077 0
-0.0024598 0.00332659 0
-0.0036994 0.00490375 0
-0.00208666 0.0041791 0
-0.00080243 0.000305127 0
-0.0018948 0.000334879 0
-0.00132882 -0.000223375 0
0 0 0
-0.000479376 0.000460575 0
-0.00161175 0.000576172 0
-0.00237189 -0.000190479 0
-0.00250125 -0.00114931 0
-0.00306979 -0.000826403 0
-0.00419373 -0.000816128 0
-0.00446452 -0.00162895 0
-0.00389808 -0.00117859 0
-0.00378317 -0.00140448 0
-0.00410484 -0.00245693 0
-0.00323754 -0.00273163 0
-0.00154484 -0.00258088 0
-0.00109484 -0.0025754 0
-0.00189787 -0.00310409 0
-0.000958178 -0.00144437 0
-0.000248137 0.00275095 0
-0.000341596 0.00242647 0
-0.000875113 0.00438137 0
-0.00284442 0.00603256 0
-0.0033797 0.00433528 0
-0.00315609 0.00264489 0
-0.00480268 0.00205167 0
-0.00492527 -8.36445e-05 0
-0.00330618 -0.00168866 0
-0.00306337 -0.000465139 0
-0.00318868 0.00130429 0
-0.00274191 0.000970653 0
-0.00204017 -0.000194868 0
-0.00284498 -0.000313216 0
-0.0037027 -0.000264283 0
-0.00310464 -0.000727662 0
-0.00367926 -0.000679349 0
-0.00515204 -0.00160978 0
-0.00423444 -0.00227383 0
-0.00332007 -0.00188 0
-0.00406716 -0.00353904 0
-0.00343302 -0.00523096 0
-0.00116917 -0.00270261 0
-0.000548145 -0.00267681 0
-0.000210865 -0.00356342 0
0.000510828 0.00236699 0
-0.000559222 0.0039294 0
-0.00247625 0.00583351 0
-0.00242737 0.00613165 0
-0.00223736 0.00477605 0
-0.0036907 0.00407449 0
-0.00429902 0.00285147 0
-0.0047482 -0.000430428 0
-0.00488495 -0.00226975 0
-0.00422358 -0.00104933 0
-0.00371455 0.000950339 0
-0.00292896 -1.42896e-05 0
-0.0024143 -0.000503532 0
-0.00245768 0.000225306 0
-0.00260196 -8.10305e-05 0
-0.00276618 -0.000596187 0
-0.00362734 0.000417809 0
-0.00458508 -0.00136106 0
-0.00463259 -0.00235522 0
-0.00359906 -0.0030581 0
-0.00284177 -0.00302066 0
-0.00387441 -0.00496016 0
-0.00292474 -0.00515709 0
-0.000210979 -0.00406207 0
0.000811126 -0.00241678 0
-3.7992e-05 0.00163857 0
-0.00137717 0.00701318 0
-0.00218203 0.00621727 0
-0.00162027 0.00458195 0
-0.00217868 0.00623911 0
-0.00334101 0.00578115 0
-0.00177023 0.000846698 0
0 0 0
-0.00175986 -0.00128022 0
-0.00287895 -0.00119364 0
-0.0013461 -0.000369484 0
-0.000927957 -0.000368001 0
-0.00165094 5.59259e-05 0
-0.00125729 -0.000193625 0
-0.00117552 0.000154134 0
-0.00289564 0.000777605 0
-0.00293743 0.000189691 0
-0.00153118 -0.000971721 0
-0.00377869 -0.00076351 0
-0.00592626 -0.00507914 0
-0.00375965 -0.00362446 0
-0.00277286 -0.00385707 0
-0.00342907 -0.00696422 0
-0.00294064 -0.00737822 0
-0.000484637 -0.00236528 0
-0.00157858 0.00400798 0
-0.00171674 0.00575547 0
-9.45865e-05 0.00595733 0
-0.00190831 0.00669574 0
-0.0026217 0.00572575 0
-0.000204637 0.00356528 0
0.000652942 0.00045962 0
0 0 0
0.000266816 -0.000389508 0
7.78484e-05 -0.00107242 0
-0.000179236 -0.00127079 0
0 0 0
-0.000229002 0.000278543 0
-0.000874994 5.19755e-05 0
-0.00142603 0.000655206 0
-0.00129723 0.00122204 0
-0.000954128 -0.000591539 0
-0.0011461 -1.33988e-05 0
-0.00163229 0.000309093 0
-0.00327511 -0.0028042 0
-0.00492782 -0.00454929 0
-0.00362877 -0.0065153 0
-0.0018668 -0.00475402 0
-0.00392238 -0.00660505 0
-0.00208591 -0.00598741 0
0.000729439 0.00536593 0
0.000572095 0.00423115 0
-0.0018463 0.00737838 0
-0.0040774 0.00892184 0
-0.0029915 0.00405726 0
-0.00105615 0.00120319 0
-0.000241495 0.00123952 0
0 0 0
-0.000226772 -0.000424257 0
-0.000465065 -0.000953159 0
-0.00108529 -0.000608293 0
-0.00084141 -0.000261217 0
8.20775e-05 -0.000103076 0
-0.00042144 0.00122522 0
-0.000750798 0.00105536 0
0.000345355 7.16452e-06 0
4.80947e-05 -0.000329241 0
-0.000650715 0.000338612 0
0 0 0
-0.000225774 0.000260707 0
-0.00353262 -0.00297693 0
-0.00664609 -0.00886458 0
-0.00348029 -0.00586792 0
-0.000350233 -0.00725875 0
0.00125569 -0.00822232 0
0.000868487 0.00290215 0
-0.00227999 0.00988877 0
-0.00602277 0.00971057 0
-0.00392352 0.00585263 0
-0.00221588 0.00366499 0
-0.00267309 0.00117164 0
-0.00129297 -0.00115109 0
0 0 0
-0.000542599 0.000531636 0
-0.000984869 -0.00101577 0
-0.0012479 -0.00035292 0
-0.00185604 -0.000601531 0
-0.00211482 -0.000237534 0
-0.000565797 0.000182072 0
0.000663029 0.000519738 0
0.000277139 0.000395854 0
-3.75997e-06 0.0001151 0
2.98122e-05 -3.22057e-05 0
0 0 0
-2.47444e-05 0.000628447 0
-2.51222e-05 -0.000144712 0
-0.00343025 -0.00416136 0
-0.00603367 -0.0096988 0
-0.00369593 -0.0131552 0
0.00105009 -0.00523019 0
-0.0019842 0.00445857 0
-0.0047389 0.0137674 0
-0.00396775 0.00912138 0
-0.0051608 0.00563192 0
-0.00942447 0.00453873 0
-0.00923315 2.22936e-05 0
-0.00369467 -0.00505173 0
0 0 0
-0.00166467 0.00197122 0
-0.00325507 0.000102615 0
-0.00216042 -0.0013199 0
-0.000992093 -6.12037e-05 0
-0.00151717 -5.04598e-05 0
-0.00127935 -0.00124753 0
-0.000582002 -0.000856659 0
6.47388e-05 0.00151091 0
0 0 0
0 0 0
0 0 0
-0.000143029 5.45718e-05 0
0.000824713 0.000128969 0
7.72796e-05 -0.000219547 0
-0.00563976 -0.00601 0
-0.0107451 -0.016799 0
-0.00310741 -0.00973589 0
-0.00256803 0.0111505 0
-0.00235212 0.00890414 0
-0.001533 0.0102435 0
-0.00805791 0.0136415 0
-0.00866068 0.00295647 0
-0.00546318 -0.00265404 0
-0.00858083 -0.00640896 0
-0.0088149 -0.00249435 0
-0.00278905 -0.000462275 0
-0.00129771 0.00200037 0
-0.0041307 -0.00220073 0
-0.00333355 -0.000742293 0
-0.00102534 -0.00175167 0
-0.000226061 0.00013476 0
-0.0018783 -0.00110794 0
-0.000904504 9.54524e-05 0
0 0 0
0 0 0
0 0 0
0 0 0
0 0 0
0 0 0
0 0 0
-0.00516241 -0.0111751 0
-0.00353471 -0.0210589 0
0.00361104 0.00957809 0
-0.00100189 0.013278 0
-0.0108144 0.0149971 0
-0.0104267 0.0138314 0
-0.00525981 0.000804709 0
-0.00387727 -0.00179784 0
-0.00818964 -0.00220221 0
-0.0104907 -0.00510554 0
-0.00742795 -0.00389661 0
-0.00411013 0.00146322 0
-0.00280074 -0.0012176 0
-0.00190548 -0.00224133 0
-0.00052668 -0.00442571 0
0.00204744 0.000213921 0
0.00102134 0.00090964 0
0.000119394 -0.00148272 0
0 0 0
0 0 0
0 0 0
0 0 0
-0.00400842 0.00329534 0
-0.01118 0.000138108 0
-0.00793589 -0.00214116 0
0.00295481 -0.0165447 0
0.00822284 -0.0174795 0
-0.00270713 0.00771031 0
-0.0133277 0.0293886 0
-0.0103229 0.0120501 0
0.000173437 0.00535968 0
0 0 0
-0.0017611 0.000281786 0
-0.00146288 0.000189755 0
-0.00292009 -0.00412591 0
-0.00578739 -0.00543984 0
-0.00273525 -0.00503461 0
0 0 0
0.000343346 -0.00452592 0
-0.00179073 -0.00257128 0
-0.00201416 -0.00405619 0
0.00185717 0.000837275 0
-0.000306939 0.00281747 0
-0.00445134 0.000272545 0
-0.00189727 -0.00214918 0
-3.90447e-05 0.00097584 0
-0.00716261 0.00584169 0
-0.00791928 0.00595009 0
-0.00444115 0.00210561 0
-0.00525395 -0.00457373 0
-0.00762421 -0.0313119 0
-0.00154759 -0.0106358 0
-0.00633707 0.0211553 0
-0.00708487 0.0230777 0
0.00592764 0.00239981 0
0.0161355 -1.31173e-05 0
0.0156197 0.00405763 0
0.0120328 -0.000548667 0
0.0156583 -0.000955016 0
0.0166704 -0.00100037 0
0.0101429 -0.00152858 0
0.00569922 -0.00652686 0
0.0108073 -0.00375992 0
0.00785825 0.000712527 0
0 0 0
0.00210103 -0.00662483 0
0.00503258 2.90451e-05 0
0.00180763 0.00672688 0
0 0 0
0.00249544 -0.00575765 0
0.00601427 0.0033147 0
0.00296772 0.00877681 0
0.00681845 0.000671118 0
0.0115136 0.000440513 0
0.00776605 0.000558679 0
-0.00637609 -0.0227162 0
-0.00610889 -0.0214841 0
0.023488 0.0152559 0
0.0515396 0.00360797 0
0.0541369 -0.0019652 0
0.0489019 -0.0017248 0
0.0523176 0.0037823 0
0.0559957 -0.00139313 0
0.0525195 -0.00115309 0
0.0511473 1.86004e-05 0
0.0531694 0.0010962 0
0.0520336 -0.00202471 0
0.0435061 -0.00381689 0
0.0438371 0.00384272 0
0.0494715 -0.000427411 0
0.0440849 -0.00358838 0
0.0384487 -0.000370881 0
0.0441814 0.00444513 0
0.049444 -0.000816464 0
0.0442226 -0.00374143 0
0.0397443 0.00104355 0
0.0492306 0.0045892 0
0.0516256 -0.00213965 0
0.0486115 9.98777e-05 0
0.0519152 0.00345486 0
0.0529798 -0.00332558 0
0.026157 -0.0174759 0


