# vtk DataFile Version 4.0
SiwiRVisFile
ASCII
DATASET STRUCTURED_POINTS
DIMENSIONS 5 5 1
ORIGIN 0 0 0
POINT_DATA 25


SCALARS flags double 125
LOOKUP_TABLE default25
1
1
1
1
1
1
1
1
1
1
1
1
1
1
1
1
1
1
1
1
1
1
1
1
1

SCALARS density double 1
LOOKUP_TABLE default
6.31228e+09
1.07458e+09
-1.17549e+08
-1.10952e+07
3.81581e+07
1.7198e+10
5.87841e+09
-2.32728e+08
1.00483e+08
2.56938e+06
2.33272e+10
8.34184e+09
-1.62458e+08
1.64104e+08
4.66045e+06
1.19329e+10
4.30823e+09
-9.95029e+07
3.67683e+07
6.00093e+06
-5.65525e+06
-1.32749e+07
-4.20153e+06
1.96288e+06
60.1511

VECTORS velocity double
0.098847 -0.323896 0
-0.650105 0.124509 0
-0.789731 0.163325 0
-4.2181 2.33685 0
-1.35703 -0.111073 0
0.0183579 -0.151623 0
-0.301659 0.647614 0
0.234179 1.01791 0
0.110856 0.503029 0
-1.8534 0.364486 0
0.279315 -0.146877 0
0.0512921 0.597624 0
0.282448 1.06128 0
0.0657203 0.663468 0
-0.337641 0.490983 0
0.614764 -0.143453 0
0.42281 0.614821 0
-0.225165 1.09836 0
-0.461458 0.036454 0
0.707052 1.77721 0
0.13257 0.212071 0
0.298527 0.17177 0
-0.179075 1.68849 0
0.0249968 0.990181 0
-2.44469 2.418 0


