# vtk DataFile Version 4.0
SiwiRVisFile
ASCII
DATASET STRUCTURED_POINTS
DIMENSIONS 5 5 1
ORIGIN 0 0 0
POINT_DATA 25


SCALARS flags double 125
LOOKUP_TABLE default25
1
1
1
1
1
1
1
1
1
1
1
1
1
1
1
1
1
1
1
1
1
1
1
1
1

SCALARS density double 1
LOOKUP_TABLE default
13991.4
2586.85
-359.116
86.9412
141.557
37522.1
13118.8
-275.086
219.709
143.406
51887.6
18795.3
-562.543
401.49
29.2145
27394.6
9948.4
-172.488
64.0184
67.8051
198.291
158.116
139.442
101.664
36.3151

VECTORS velocity double
0.0862642 -0.345885 0
-0.798968 -0.292004 0
1.72399 0.260457 0
-3.90676 0.513392 0
0.379669 -0.621099 0
0.0139278 -0.150509 0
-0.339565 0.579184 0
2.55571 2.72605 0
-3.31949 2.95885 0
3.66323 3.92441 0
0.268472 -0.146457 0
0.0416136 0.576004 0
1.40864 1.19598 0
-0.529978 0.896178 0
-0.849233 -4.53418 0
0.611133 -0.143919 0
0.411451 0.598482 0
-0.21769 1.8324 0
-3.43257 0.877788 0
0.140796 0.0900629 0
0.425446 0.878289 0
-0.0260349 1.18438 0
-0.0102327 1.08895 0
0.00372555 1.3101 0
-1.93499 1.85861 0


