# vtk DataFile Version 4.0
SiwiRVisFile
ASCII
DATASET STRUCTURED_POINTS
DIMENSIONS 5 5 1
ORIGIN 0 0 0
POINT_DATA 25


SCALARS flags double 125
LOOKUP_TABLE default25
1
1
1
1
1
1
1
1
1
1
1
1
1
1
1
1
1
1
1
1
1
1
1
1
1

SCALARS density double 1
LOOKUP_TABLE default
1
1
1
1
1
1
1
1
1
1
1
1
1
1
1
1
1
1
1
1
0.986666
1
1
1
1.01333

VECTORS velocity double
0 3.46945e-18 0
0 3.46945e-18 0
0 3.46945e-18 0
0 3.46945e-18 0
0 3.46945e-18 0
0 3.46945e-18 0
0 3.46945e-18 0
0 3.46945e-18 0
0 3.46945e-18 0
0 3.46945e-18 0
0 3.46945e-18 0
0 3.46945e-18 0
0 3.46945e-18 0
0 3.46945e-18 0
0 3.46945e-18 0
0 3.46945e-18 0
0 3.46945e-18 0
0 3.46945e-18 0
0 3.46945e-18 0
0 3.46945e-18 0
0.0135135 0.0135135 0
0.0266666 0 0
0.0266666 0 0
0.0266666 0 0
0.0131579 -0.0131579 0


