# vtk DataFile Version 4.0
SiwiRVisFile
ASCII
DATASET STRUCTURED_POINTS
DIMENSIONS 50 50 1
ORIGIN 0 0 0
SPACING 1 1 1
POINT_DATA 2500


SCALARS flags double 1
LOOKUP_TABLE default
1
1
1
1
1
1
1
1
1
1
1
1
1
1
1
1
1
1
1
1
1
1
1
1
1
1
1
1
1
1
1
1
1
1
1
1
1
1
1
1
1
1
1
1
1
1
1
1
1
1
1
1
1
1
1
1
1
1
1
1
1
1
1
1
1
1
1
1
1
1
1
1
1
1
1
1
1
1
1
1
1
1
1
1
1
1
1
1
1
1
1
1
1
1
1
1
1
1
1
1
1
1
1
1
1
1
1
1
1
1
1
1
1
1
1
1
1
1
1
1
1
1
1
1
1
1
1
1
1
1
1
1
1
1
1
1
1
1
1
1
1
1
1
1
1
1
1
1
1
1
1
1
1
1
1
1
1
1
1
1
1
1
1
1
1
1
1
1
1
1
1
1
1
1
1
1
1
1
1
1
1
1
1
1
1
1
1
1
1
1
1
1
1
1
1
1
1
1
1
1
1
1
1
1
1
1
1
1
1
1
1
1
1
1
1
1
1
1
1
1
1
1
1
1
1
1
1
1
1
1
1
1
1
1
1
1
1
1
1
1
1
1
1
1
1
1
1
1
1
1
1
1
1
1
1
1
1
1
1
1
1
1
1
1
1
1
1
1
1
1
1
1
1
1
1
1
1
1
1
1
1
1
1
1
1
1
1
1
1
1
1
1
1
1
1
1
1
1
1
1
1
1
1
1
1
1
1
1
1
1
1
1
1
1
1
1
1
1
1
1
1
1
1
1
1
1
1
1
1
1
1
1
1
1
1
1
1
1
1
1
1
1
1
1
1
1
1
1
1
1
1
1
1
1
1
1
1
1
1
1
1
1
1
1
1
1
1
1
1
1
1
1
1
1
1
1
1
1
1
1
1
1
1
1
1
1
1
1
1
1
1
1
1
1
1
1
1
1
1
1
1
1
1
1
1
1
1
1
1
1
1
1
1
1
1
1
1
1
1
1
1
1
1
1
1
1
1
1
1
1
1
1
1
1
1
1
1
1
1
1
1
1
1
1
1
1
1
1
1
1
1
1
1
1
1
1
1
1
1
1
1
1
1
1
1
1
1
1
1
1
1
1
1
1
1
1
1
1
1
1
1
1
1
1
1
1
1
1
1
1
1
1
1
1
1
1
1
1
1
1
1
1
1
1
1
1
1
1
1
1
1
1
1
1
1
1
1
1
1
1
1
1
1
1
1
1
1
1
1
1
1
1
1
1
1
1
1
1
1
1
1
1
1
1
1
1
1
1
1
1
1
1
1
1
1
1
1
1
1
1
1
1
1
1
1
1
1
1
1
1
1
1
1
1
1
1
1
1
1
1
1
1
1
1
1
1
1
1
1
1
1
1
1
1
1
1
1
1
1
1
1
1
1
1
1
1
1
1
1
1
1
1
1
1
1
1
1
1
1
1
1
1
1
1
1
1
1
1
1
1
1
1
1
1
1
1
1
1
1
1
1
1
1
1
1
1
1
1
1
1
1
1
1
1
1
1
1
1
1
1
1
1
1
1
1
1
1
1
1
1
1
1
1
1
1
1
1
1
1
1
1
1
1
1
1
1
1
1
1
1
1
1
1
1
1
1
1
1
1
1
1
1
1
1
1
1
1
1
1
1
1
1
1
1
1
1
1
1
1
1
1
1
1
1
1
1
1
1
1
1
1
1
1
1
1
1
1
1
1
1
1
1
1
1
1
1
1
1
1
1
1
1
1
1
1
1
1
1
1
1
1
1
1
1
1
1
1
1
1
1
1
1
1
1
1
1
1
1
1
1
1
1
1
1
1
1
1
1
1
1
1
1
1
1
1
1
1
1
1
1
1
1
1
1
1
1
1
1
1
1
1
1
1
1
1
1
1
1
1
1
1
1
1
1
1
1
1
1
1
1
1
1
1
1
1
1
1
1
1
1
1
1
1
1
1
1
1
1
1
1
1
1
1
1
1
1
1
1
1
1
1
1
1
1
1
1
1
1
1
1
1
1
1
1
1
1
1
1
1
1
1
1
1
1
1
1
1
1
1
1
1
1
1
1
1
1
1
1
1
1
1
1
1
1
1
1
1
1
1
1
1
1
1
1
1
1
1
1
1
1
1
1
1
1
1
1
1
1
1
1
1
1
1
1
1
1
1
1
1
1
1
1
1
1
1
1
1
1
1
1
1
1
1
1
1
1
1
1
1
1
1
1
1
1
1
1
1
1
1
1
1
1
1
1
1
1
1
1
1
1
1
1
1
1
1
1
1
1
1
1
1
1
1
1
1
1
1
1
1
1
1
1
1
1
1
1
1
1
1
1
1
1
1
1
1
1
1
1
1
1
1
1
1
1
1
1
1
1
1
1
1
1
1
1
1
1
1
1
1
1
1
1
1
1
1
1
1
1
1
1
1
1
1
1
1
1
1
1
1
1
1
1
1
1
1
1
1
1
1
1
1
1
1
1
1
1
1
1
1
1
1
1
1
1
1
1
1
1
1
1
1
1
1
1
1
1
1
1
1
1
1
1
1
1
1
1
1
1
1
1
1
1
1
1
1
1
1
1
1
1
1
1
1
1
1
1
1
1
1
1
1
1
1
1
1
1
1
1
1
1
1
1
1
1
1
1
1
1
1
1
1
1
1
1
1
1
1
1
1
1
1
1
1
1
1
1
1
1
1
1
1
1
1
1
1
1
1
1
1
1
1
1
1
1
1
1
1
1
1
1
1
1
1
1
1
1
1
1
1
1
1
1
1
1
1
1
1
1
1
1
1
1
1
1
1
1
1
1
1
1
1
1
1
1
1
1
1
1
1
1
1
1
1
1
1
1
1
1
1
1
1
1
1
1
1
1
1
1
1
1
1
1
1
1
1
1
1
1
1
1
1
1
1
1
1
1
1
1
1
1
1
1
1
1
1
1
1
1
1
1
1
1
1
1
1
1
1
1
1
1
1
1
1
1
1
1
1
1
1
1
1
1
1
1
1
1
1
1
1
1
1
1
1
1
1
1
1
1
1
1
1
1
1
1
1
1
1
1
1
1
1
1
1
1
1
1
1
1
1
1
1
1
1
1
1
1
1
1
1
1
1
1
1
1
1
1
1
1
1
1
1
1
1
1
1
1
1
1
1
1
1
1
1
1
1
1
1
1
1
1
1
1
1
1
1
1
1
1
1
1
1
1
1
1
1
1
1
1
1
1
1
1
1
1
1
1
1
1
1
1
1
1
1
1
1
1
1
1
1
1
1
1
1
1
1
1
1
1
1
1
1
1
1
1
1
1
1
1
1
1
1
1
1
1
1
1
1
1
1
1
1
1
1
1
1
1
1
1
1
1
1
1
1
1
1
1
1
1
1
1
1
1
1
1
1
1
1
1
1
1
1
1
1
1
1
1
1
1
1
1
1
1
1
1
1
1
1
1
1
1
1
1
1
1
1
1
1
1
1
1
1
1
1
1
1
1
1
1
1
1
1
1
1
1
1
1
1
1
1
1
1
1
1
1
1
1
1
1
1
1
1
1
1
1
1
1
1
1
1
1
1
1
1
1
1
1
1
1
1
1
1
1
1
1
1
1
1
1
1
1
1
1
1
1
1
1
1
1
1
1
1
1
1
1
1
1
1
1
1
1
1
1
1
1
1
1
1
1
1
1
1
1
1
1
1
1
1
1
1
1
1
1
1
1
1
1
1
1
1
1
1
1
1
1
1
1
1
1
1
1
1
1
1
1
1
1
1
1
1
1
1
1
1
1
1
1
1
1
1
1
1
1
1
1
1
1
1
1
1
1
1
1
1
1
1
1
1
1
1
1
1
1
1
1
1
1
1
1
1
1
1
1
1
1
1
1
1
1
1
1
1
1
1
1
1
1
1
1
1
1
1
1
1
1
1
1
1
1
1
1
1
1
1
1
1
1
1
1
1
1
1
1
1
1
1
1
1
1
1
1
1
1
1
1
1
1
1
1
1
1
1
1
1
1
1
1
1
1
1
1
1
1
1
1
1
1
1
1
1
1
1
1
1
1
1
1
1
1
1
1
1
1
1
1
1
1
1
1
1
1
1
1
1
1
1
1
1
1
1
1
1
1
1
1
1
1
1
1
1
1
1
1
1
1
1
1
1
1
1
1
1
1
1
1
1
1
1
1
1
1
1
1
1
1
1
1
1
1
1
1
1
1
1
1
1
1
1
1
1
1
1
1
1
1
1
1
1
1
1
1
1
1
1
1
1
1
1
1
1
1
1
1
1
1
1
1
1
1
1
1
1
1
1
1
1
1
1
1
1
1
1
1
1
1
1
1
1
1
1
1
1
1
1
1
1
1
1
1
1
1
1
1
1
1
1
1
1
1
1
1
1
1
1
1
1
1
1
1
1
1
1
1
1
1
1
1
1
1
1
1
1
1
1
1
1
1
1
1
1
1
1
1
1
1
1
1
1
1
1
1
1
1
1
1
1
1
1
1
1
1
1
1
1
1
1
1
1
1
1
1
1
1
1
1
1
1
1
1
1
1
1
1
1
1
1
1
1
1
1
1
1
1
1
1
1
1
1
1
1
1
1
1
1
1
1
1
1
1
1
1
1
1
1
1
1
1
1
1
1
1
1
1
1
1
1
1
1
1
1
1
1
1
1
1
1
1
1
1
1
1
1
1
1
1
1
1
1
1
1
1
1
1
1
1
1
1
1
1
1
1
1
1
1
1
1
1
1
1
1
1
1
1
1
1
1
1
1
1
1
1
1
1
1
1
1
1
1
1
1
1
1
1
1
1
1
1
1
1
1
1
1
1
1
1
1
1
1
1
1
1
1
1
1
1
1
1
1
1
1
1
1
1
1
1
1
1
1
1
1
1
1
1
1
1
1
1
1
1
1
1
1
1
1
1
1
1
1
1
1
1
1
1
1
1
1
1
1
1
1
1
1
1
1
1
1
1
1
1
1
1
1
1
1
1
1
1
1
1
1
1
1
1
1
1
1
1
1
1
1
1
1
1
1
1
1
1
1
1
1
1
1
1
1
1
1
1
1
1
1
1
1
1
1
1
1
1
1
1
1
1
1
1
1
1
1
1
1
1
1
1
1
1
1
1
1
1
1
1
1
1
1
1
1
1
1
1
1
1
1
1
1
1
1
1
1
1
1
1
1
1
1
1
1
1
1
1
1
1
1
1
1
1
1
1
1
1
1
1
1
1
1
1
1
1
1
1
1
1
1
1
1
1
1
1
1
1
1
1
1
1
1
1
1
1
1
1
1
1
1
1
1
1
1
1
1
1
1
1
1
1
1
1
1
1
1
1
1
1
1
1
1
1
1
1
1
1
1
1
1
1
1
1
1
1
1
1
1
1
1
1
1
1
1
1
1
1
1
1
1
1
1
1
1
1
1
1
1
1
1
1
1
1
1
1
1
1
1
1
1
1
1
1
1
1
1
1
1
1
1
1
1
1
1
1
1
1
1
1
1
1
1
1
1
1
1
1
1
1
1
1
1
1
1
1
1
1
1
1
1
1
1
1
1
1
1
1
1
1
1
1
1
1
1
1
1
1
1
1
1
1
1
1
1
1
1
1
1
1
1
1
1
1
1
1
1
1
1
1
1
1
1
1
1
1
1
1
1
1
1
1
1
1
1
1
1
1
1
1
1
1
1
1
1
1
1
1
1
1
1
1
1
1
1
1
1
1
1
1
1
1

SCALARS density double 1
LOOKUP_TABLE default
0.999955
0.999955
0.999955
0.999955
0.999955
0.999954
0.999956
0.999956
0.999952
0.999954
0.999958
0.999953
0.999949
0.999959
0.999959
0.999947
0.999954
0.999965
0.999952
0.999948
0.999963
0.999959
0.999946
0.999957
0.999962
0.999947
0.999952
0.999963
0.99995
0.999946
0.999962
0.999957
0.999944
0.999956
0.999963
0.99995
0.999951
0.999961
0.999957
0.999951
0.999956
0.999958
0.999954
0.999954
0.999956
0.999955
0.999955
0.999954
0.999955
0.999953
0.999954
0.999955
0.999955
0.999954
0.999954
0.999956
0.999957
0.999953
0.999954
0.99996
0.999955
0.999948
0.999959
0.999961
0.999944
0.999952
0.999967
0.99995
0.999944
0.999963
0.99996
0.999946
0.999953
0.99996
0.999957
0.999954
0.99995
0.999957
0.999965
0.999949
0.999947
0.999967
0.999959
0.999942
0.999958
0.999965
0.999948
0.999949
0.999961
0.999954
0.999948
0.999955
0.999956
0.999952
0.999953
0.999956
0.999955
0.999955
0.999955
0.999956
0.999954
0.999955
0.999955
0.999954
0.999955
0.999956
0.999952
0.999952
0.999959
0.999954
0.999946
0.99996
0.999964
0.999943
0.999951
0.999973
0.99995
0.999935
0.999971
0.999968
0.999926
0.999952
0.999987
0.999939
0.999927
0.999983
0.99997
0.999922
0.999958
0.999984
0.999941
0.999938
0.999975
0.999959
0.999935
0.999959
0.999967
0.999946
0.99995
0.999964
0.999956
0.99995
0.999958
0.999958
0.999953
0.999954
0.999956
0.999955
0.999953
0.999956
0.999954
0.999954
0.999953
0.999956
0.999956
0.999952
0.999952
0.99996
0.999954
0.999944
0.999961
0.999964
0.999941
0.999952
0.999973
0.999948
0.999942
0.999968
0.999958
0.999942
0.999961
0.99996
0.999944
0.999959
0.999962
0.999944
0.999954
0.999965
0.999945
0.999949
0.99997
0.99995
0.99994
0.99997
0.999962
0.999936
0.999958
0.99997
0.999945
0.999949
0.999966
0.999956
0.999949
0.999958
0.999958
0.999953
0.999954
0.999955
0.999958
0.999955
0.999952
0.999952
0.999954
0.999956
0.999952
0.999952
0.999961
0.999955
0.999944
0.999961
0.999968
0.999939
0.999946
0.999981
0.999953
0.99992
0.999972
0.99999
0.999917
0.999929
1.00001
0.999959
0.999892
0.999982
1.00001
0.999902
0.999927
1.00002
0.999952
0.999897
0.99998
0.999994
0.99992
0.999936
0.999991
0.999958
0.999928
0.999964
0.999971
0.99994
0.999948
0.999965
0.999954
0.999948
0.999957
0.999958
0.999953
0.999955
0.999958
0.999957
0.99995
0.999951
0.999955
0.999951
0.999951
0.999961
0.999955
0.999942
0.999964
0.999967
0.999935
0.999957
0.999976
0.999933
0.999949
0.999986
0.999935
0.999933
0.999993
0.99996
0.999917
0.999969
0.999987
0.999933
0.999933
0.999982
0.999969
0.999922
0.999949
0.999991
0.999944
0.999921
0.999979
0.999969
0.999922
0.999963
0.999976
0.999931
0.999953
0.999975
0.999942
0.999945
0.999967
0.999954
0.999948
0.999959
0.999959
0.999955
0.999958
0.999961
0.99995
0.99995
0.999948
0.999949
0.999958
0.999955
0.999944
0.999958
0.999972
0.999941
0.999937
0.999981
0.999967
0.999916
0.999952
1
0.999943
0.999907
0.999988
0.999989
0.999902
0.999945
1.00001
0.999933
0.99991
0.999997
0.999977
0.999903
0.99996
1.00001
0.999925
0.999921
0.999997
0.999969
0.999909
0.999954
0.999993
0.999945
0.999927
0.999972
0.99997
0.999938
0.999951
0.999966
0.999955
0.99995
0.999961
0.999961
0.999959
0.999959
0.999944
0.999942
0.99994
0.999952
0.999949
0.999937
0.999965
0.999966
0.999923
0.999965
0.999989
0.999907
0.999944
1.00002
0.999925
0.999902
1.00001
0.999975
0.999897
0.999959
0.999995
0.999932
0.999926
0.999978
0.999972
0.999932
0.999938
0.999985
0.99997
0.999917
0.999957
1.00001
0.999931
0.999908
1.00001
0.999978
0.999891
0.999969
1
0.999919
0.999946
0.999986
0.999943
0.999945
0.999973
0.99996
0.999957
0.999968
0.999968
0.999962
0.999937
0.999941
0.999938
0.999939
0.999935
0.999941
0.999962
0.999952
0.999925
0.999959
0.999985
0.999939
0.999919
0.999981
0.999982
0.999914
0.999948
0.999994
0.999934
0.999936
0.999986
0.999958
0.999937
0.999965
0.999968
0.999941
0.999947
0.99997
0.999951
0.999928
0.999969
0.999972
0.999923
0.999958
0.999987
0.999934
0.999932
0.99998
0.99997
0.99993
0.999946
0.99998
0.99996
0.999946
0.999966
0.999975
0.999969
0.99997
0.999967
0.999972
0.999928
0.999939
0.999929
0.99991
0.999947
0.999955
0.999892
0.999952
1.00001
0.999896
0.999907
1.00004
0.999956
0.999888
0.999984
0.999989
0.999925
0.999937
0.999985
0.999965
0.999928
0.999955
0.999985
0.999942
0.999932
0.999979
0.999963
0.999921
0.999958
0.999982
0.999938
0.999926
0.999976
0.999978
0.999919
0.999932
1.00002
0.999949
0.999877
1
1.00001
0.999897
0.999959
1.00001
0.999953
0.999962
0.999995
0.999979
0.999967
0.999979
0.999918
0.999906
0.999917
0.999899
0.99991
0.999938
0.99991
0.999901
0.999958
0.999972
0.99992
0.999933
0.999988
0.999945
0.99993
0.999979
0.999949
0.999939
0.99997
0.999949
0.99994
0.999956
0.999959
0.999943
0.999947
0.999966
0.999961
0.99995
0.999958
0.999965
0.999957
0.999945
0.999967
0.999955
0.999935
0.999976
0.999957
0.99993
0.999976
0.999975
0.999941
0.999957
0.999996
0.999992
0.999973
0.999991
1
0.999988
0.999996
0.999983
0.999891
0.99983
0.999887
0.999909
0.999817
0.999846
0.999975
0.999877
0.999825
0.999975
0.999969
0.999888
0.999938
0.999979
0.999954
0.999912
0.999966
0.999997
0.999916
0.999932
1.00001
0.999955
0.999889
0.999984
1.00001
0.999895
0.99993
1.00002
0.999948
0.999899
0.999982
0.999992
0.999905
0.999944
1
0.999948
0.999926
0.99997
1.00001
0.999935
0.999934
1.00007
1.00002
0.999932
1.00005
1.00007
0.999989
1.00001
1.00006
1.00001
0.999828
0.999783
0.999776
0.999819
0.999835
0.999767
0.999792
0.999873
0.999873
0.999839
0.99991
0.999939
0.999912
0.999949
0.999953
0.999952
0.999956
0.999944
0.999973
0.999943
0.999944
0.999978
0.999953
0.999956
0.999954
0.999954
0.999951
0.999955
0.999929
0.999964
0.999966
0.99993
0.999963
0.999957
0.999948
0.999947
0.999963
0.999988
0.999954
0.999995
1.00005
1.00001
1.00002
1.0001
1.0001
1.00005
1.00006
1.0001
1.00009
1.00006
0.99965
0.999734
0.999665
0.999574
0.999741
0.999731
0.999617
0.999726
0.999807
0.999762
0.999798
0.999895
0.99992
0.999862
0.999934
1.00002
0.999884
0.999904
1.00002
0.999965
0.999874
0.999966
1.00003
0.999906
0.999906
1.00001
0.999996
0.99988
0.999949
1.00003
0.999935
0.999895
1
1.00001
0.999883
0.999972
1.00004
0.999969
0.999997
1.00009
1.00011
1.00006
1.00013
1.00023
1.00012
1.00011
1.00025
1.00018
1.00011
1.00019
0.999468
0.999454
0.999503
0.999412
0.999379
0.999466
0.999528
0.999483
0.99954
0.999652
0.999655
0.999724
0.999812
0.999861
0.999869
0.999883
0.999985
0.999941
0.999909
0.999971
0.999973
0.999938
0.999925
0.99997
0.99998
0.999922
0.99994
0.999987
0.999958
0.999933
0.999941
0.999993
0.999956
0.999919
1.00002
1.00002
1.00002
1.00007
1.00015
1.00018
1.00018
1.00029
1.00032
1.00026
1.00032
1.0004
1.00034
1.00028
1.00034
1.00031
0.999339
0.998985
0.999063
0.999199
0.999051
0.999076
0.999213
0.999183
0.999224
0.999361
0.999462
0.999467
0.9996
0.999799
0.999764
0.9998
0.999939
0.999953
0.999908
0.999916
1.00003
0.999955
0.999876
0.999987
0.999983
0.999924
0.999914
1.00002
0.999957
0.999873
0.999987
0.999986
0.999943
0.99996
1.00007
1.0001
1.00007
1.00023
1.00033
1.00032
1.0004
1.0005
1.00051
1.00048
1.00059
1.00061
1.00047
1.0006
1.00067
1.00039
0.998776
0.99868
0.998685
0.998679
0.998665
0.998696
0.99871
0.998815
0.998858
0.998903
0.999051
0.999219
0.999311
0.999387
0.999618
0.99976
0.999731
0.99985
0.999933
0.99996
0.999863
0.99993
1.00004
0.999903
0.999931
0.999977
1
0.999858
0.999973
1.00004
0.999929
0.999962
1.00003
1.00013
1.00009
1.0002
1.0004
1.00043
1.00049
1.00062
1.00072
1.00072
1.00074
1.00085
1.00081
1.00084
1.00084
1.00084
1.00082
1.0008
0.998138
0.998389
0.998306
0.998118
0.998276
0.998341
0.998242
0.99834
0.998454
0.998463
0.998527
0.998719
0.998899
0.999023
0.999237
0.99945
0.999639
0.999646
0.999847
0.999917
0.999876
0.999933
0.999987
0.999959
0.999869
1.00002
0.999949
0.99992
0.999951
1.00001
0.999978
1.00002
1.00019
1.00018
1.00033
1.00049
1.00064
1.00071
1.00084
1.00096
1.00098
1.00098
1.00106
1.00113
1.00104
1.0011
1.00123
1.00109
1.00101
1.00123
0.997976
0.997954
0.997873
0.998022
0.998071
0.99805
0.998042
0.998072
0.998047
0.998161
0.998252
0.998175
0.998365
0.998695
0.998756
0.998954
0.99931
0.999609
0.999545
0.999733
0.999985
0.99989
0.999828
1
1.00004
0.999856
0.9999
1.00005
1
0.999889
1.00012
1.00028
1.00018
1.00042
1.0007
1.00082
1.00082
1.00107
1.0012
1.00109
1.00115
1.00126
1.00122
1.00125
1.00126
1.00128
1.00125
1.00141
1.00137
1.0013
0.997782
0.997701
0.997871
0.998151
0.997928
0.997948
0.998105
0.998188
0.997961
0.997959
0.998062
0.99802
0.997952
0.998117
0.998368
0.998495
0.998759
0.999122
0.99936
0.999527
0.999719
0.999849
0.999902
0.999873
0.999965
0.99993
1.00001
0.999988
1.00001
1.00014
1.00026
1.00038
1.00056
1.00082
1.00099
1.00105
1.00123
1.00133
1.00126
1.00125
1.00134
1.00136
1.0012
1.0013
1.0014
1.00147
1.00126
1.00149
1.00159
1.00149
0.997569
0.997868
0.998015
0.997928
0.99804
0.99827
0.998104
0.998108
0.998262
0.998109
0.997992
0.998067
0.997983
0.997724
0.997948
0.998191
0.998249
0.998472
0.99907
0.999273
0.999387
0.999689
0.999892
0.999893
0.999731
1.00014
0.999991
0.999946
1.00015
1.00038
1.00044
1.00055
1.00104
1.00117
1.00115
1.00135
1.00153
1.00132
1.00128
1.0014
1.00134
1.00127
1.00143
1.00149
1.00131
1.00153
1.00161
1.00152
1.00154
1.0018
0.997764
0.998062
0.997932
0.997812
0.998062
0.998286
0.998023
0.998149
0.998396
0.998404
0.99818
0.998172
0.998153
0.998022
0.997775
0.997847
0.997943
0.998188
0.998319
0.998882
0.999152
0.999391
0.99966
0.999758
1.00006
0.999795
1.00009
1.00016
1.00034
1.00052
1.00069
1.00115
1.00118
1.00135
1.00146
1.00151
1.00133
1.00131
1.00138
1.00141
1.00129
1.00136
1.00154
1.00167
1.00145
1.00163
1.00177
1.00175
1.00155
1.00176
0.998044
0.997722
0.997729
0.998039
0.997783
0.997719
0.997941
0.998236
0.997982
0.998157
0.998492
0.998329
0.998216
0.998282
0.998053
0.997652
0.997864
0.997828
0.997955
0.998147
0.998836
0.999055
0.999212
0.999741
0.999853
0.999976
1.00003
1.00052
1.00058
1.00071
1.00127
1.00138
1.00146
1.00144
1.00168
1.0014
1.00128
1.00146
1.00142
1.00132
1.00163
1.00178
1.00153
1.00176
1.00193
1.00189
1.00159
1.00195
1.00194
1.00168
0.997999
0.997771
0.997764
0.99795
0.997676
0.99773
0.997753
0.99789
0.997786
0.99791
0.998252
0.998298
0.998315
0.998306
0.998343
0.998157
0.997753
0.997759
0.997825
0.997952
0.998073
0.998676
0.999107
0.999376
0.999657
1.00007
1.00034
1.00048
1.00086
1.00132
1.00139
1.00146
1.00158
1.00166
1.00137
1.00134
1.00149
1.0015
1.00152
1.00161
1.00184
1.00186
1.0018
1.00189
1.00185
1.00196
1.00175
1.0019
1.00192
1.00187
0.997857
0.998377
0.997998
0.997863
0.997868
0.99825
0.997629
0.997608
0.997929
0.997944
0.997596
0.998071
0.998426
0.998315
0.998267
0.998518
0.998099
0.997793
0.997771
0.997761
0.997772
0.998145
0.998806
0.998959
0.999564
1.00005
1.00059
1.00072
1.00121
1.00156
1.00154
1.0016
1.00167
1.00152
1.00127
1.00156
1.00157
1.00145
1.00173
1.00209
1.00174
1.00172
1.00202
1.002
1.00149
1.00185
1.00193
1.0018
1.00149
1.00203
0.998159
0.998105
0.997885
0.998188
0.997887
0.997968
0.99791
0.997799
0.997733
0.997683
0.997693
0.997658
0.997968
0.998098
0.998303
0.998231
0.998486
0.998139
0.997757
0.997629
0.997824
0.997813
0.997997
0.998964
0.99944
1.00003
1.00047
1.00134
1.00153
1.00149
1.00177
1.00178
1.00153
1.00135
1.00167
1.0016
1.0017
1.00184
1.00202
1.00191
1.00194
1.00195
1.00187
1.00184
1.00189
1.00195
1.00169
1.00201
1.00182
1.00175
0.998179
0.997591
0.997672
0.998331
0.997681
0.997576
0.998074
0.998151
0.997599
0.997637
0.998034
0.997644
0.997354
0.998009
0.998239
0.998182
0.998264
0.998581
0.998112
0.997866
0.997696
0.997786
0.997975
0.998472
0.999403
0.999879
1.00079
1.00131
1.00154
1.00171
1.00169
1.00159
1.00134
1.00163
1.00171
1.0016
1.00174
1.00224
1.00196
1.00164
1.00203
1.00207
1.00163
1.00174
1.00217
1.00207
1.00154
1.00212
1.00218
1.0017
0.997366
0.997805
0.997579
0.997602
0.997536
0.997973
0.997684
0.997869
0.997961
0.997899
0.997727
0.997812
0.997749
0.997563
0.997719
0.998125
0.998221
0.99814
0.998546
0.998076
0.997768
0.997714
0.998081
0.998355
0.99885
1.00027
1.00082
1.00116
1.00165
1.0018
1.00167
1.00135
1.00177
1.00171
1.00165
1.002
1.00211
1.00186
1.00186
1.002
1.00185
1.00176
1.00194
1.00205
1.00172
1.00209
1.00208
1.00202
1.00183
1.00232
0.997161
0.997997
0.997504
0.997323
0.997578
0.998069
0.997489
0.997501
0.99809
0.998047
0.997683
0.99773
0.99809
0.99749
0.997396
0.997907
0.998106
0.998114
0.998225
0.998547
0.998076
0.997963
0.998048
0.998412
0.999223
0.999801
1.00071
1.00124
1.00153
1.00164
1.00136
1.0017
1.00175
1.0017
1.00183
1.00222
1.00211
1.00166
1.00202
1.00205
1.00177
1.00174
1.00223
1.00216
1.00171
1.00208
1.00225
1.00209
1.00168
1.00233
0.99764
0.997443
0.997254
0.998088
0.997443
0.997327
0.997705
0.997762
0.997368
0.997657
0.998076
0.997809
0.997637
0.998017
0.997791
0.997502
0.997739
0.998224
0.998196
0.998219
0.998737
0.998389
0.998205
0.998735
0.999279
0.999738
1.00036
1.00117
1.00124
1.0011
1.00165
1.00172
1.00158
1.00194
1.00219
1.00187
1.00168
1.00213
1.00196
1.00166
1.0021
1.00233
1.00191
1.00197
1.00241
1.00224
1.00162
1.00239
1.00223
1.00189
0.997437
0.997212
0.997149
0.997894
0.997166
0.997274
0.997512
0.99766
0.997277
0.997429
0.997937
0.997821
0.99769
0.997838
0.998033
0.997475
0.997486
0.997889
0.998128
0.998276
0.9984
0.998859
0.998871
0.998964
0.999283
0.999811
1.0003
1.00059
1.00087
1.00144
1.00159
1.00164
1.00186
1.00219
1.00217
1.00175
1.00196
1.00209
1.00191
1.00183
1.00228
1.0023
1.00202
1.00218
1.00233
1.00245
1.00195
1.00245
1.00242
1.00222
0.996919
0.998187
0.997626
0.997257
0.997588
0.998333
0.997468
0.997366
0.998231
0.997888
0.997337
0.997773
0.998275
0.997784
0.997568
0.998218
0.997822
0.997484
0.997964
0.9985
0.998618
0.998976
0.999649
0.999439
0.999428
0.999805
0.999982
0.999981
1.00072
1.00117
1.00127
1.00171
1.00221
1.00192
1.00154
1.00221
1.00204
1.00154
1.00201
1.00243
1.00189
1.00159
1.00242
1.00229
1.00145
1.00213
1.00255
1.00208
1.00162
1.00278
0.99755
0.998078
0.997279
0.997562
0.997486
0.997909
0.997575
0.997475
0.997653
0.997679
0.997368
0.997402
0.997709
0.997788
0.997715
0.997786
0.99794
0.997569
0.997768
0.998209
0.998867
0.999306
0.999613
1.00011
0.999963
0.999562
0.999465
1.00001
1.00042
1.00081
1.00148
1.00193
1.00208
1.00181
1.00204
1.00211
1.00197
1.00207
1.0024
1.00234
1.00214
1.00229
1.00236
1.00227
1.00212
1.00236
1.00222
1.00257
1.00195
1.00226
0.998182
0.996927
0.996955
0.998449
0.997223
0.996809
0.997609
0.997899
0.997039
0.997177
0.998176
0.997594
0.997321
0.997917
0.998214
0.997693
0.997666
0.998327
0.997906
0.997927
0.998916
0.999771
1.00007
1.00027
1.00027
0.999539
0.999452
0.999676
0.99993
1.00068
1.00165
1.00181
1.00144
1.00211
1.00216
1.00161
1.00186
1.00245
1.00222
1.00165
1.00264
1.00275
1.00196
1.00224
1.00306
1.00258
1.00158
1.00286
1.003
1.00181
0.997126
0.997805
0.997542
0.997539
0.997332
0.997639
0.997297
0.997505
0.997949
0.997573
0.997584
0.997921
0.997835
0.99753
0.997778
0.998086
0.997938
0.997781
0.998242
0.998404
0.998896
0.999741
1.00051
1.00059
1.00004
0.999906
0.999346
0.999235
0.999882
1.00074
1.00123
1.00144
1.002
1.00195
1.00175
1.00203
1.00237
1.00203
1.00197
1.00236
1.00229
1.00189
1.0024
1.00256
1.00215
1.00254
1.00258
1.00229
1.00213
1.00295
0.996784
0.998395
0.997406
0.99644
0.99723
0.998264
0.996819
0.996788
0.997972
0.99773
0.996808
0.997235
0.998093
0.997197
0.997175
0.997884
0.997982
0.997706
0.998083
0.998952
0.999003
0.999658
1.00061
1.00071
1.00036
0.999799
0.999335
0.999246
0.999987
1.00065
1.00073
1.00163
1.00211
1.0018
1.00191
1.00264
1.00263
1.00181
1.00265
1.00308
1.00216
1.00195
1.00306
1.00294
1.00176
1.00269
1.00343
1.00252
1.00177
1.00313
0.997766
0.996921
0.996635
0.99817
0.997272
0.996762
0.997779
0.997768
0.996964
0.997075
0.997955
0.997421
0.997194
0.997959
0.99792
0.997704
0.997989
0.998571
0.998578
0.998732
0.999788
1.00023
1.00033
1.00061
1.00043
0.999859
0.999469
0.999576
0.999597
0.999898
1.00099
1.00128
1.00124
1.00175
1.00215
1.00201
1.00188
1.00268
1.00252
1.00192
1.00274
1.0029
1.0021
1.00209
1.00325
1.00259
1.00172
1.00328
1.00311
1.00206
0.997517
0.996193
0.996696
0.998374
0.996908
0.996437
0.997658
0.998001
0.996618
0.996841
0.998034
0.997729
0.996879
0.997407
0.998094
0.997353
0.997395
0.998285
0.998617
0.998984
0.999716
1.00038
1.00027
1.00027
1.0004
0.999921
0.999877
0.999763
0.999547
1.00015
1.00086
1.00115
1.00147
1.00239
1.00251
1.00184
1.00247
1.00301
1.00221
1.00186
1.00303
1.00317
1.00202
1.00245
1.00342
1.00295
1.00186
1.00314
1.00364
1.00255
0.995812
0.998257
0.997683
0.995949
0.997159
0.998372
0.996623
0.996337
0.998296
0.997487
0.996738
0.997423
0.998029
0.997222
0.997029
0.998084
0.997913
0.997923
0.998923
0.999816
1.00003
1.00017
1.00061
1.00031
0.999981
1.00029
1.00002
0.999554
0.999833
0.999973
1.00008
1.00085
1.0019
1.00198
1.00172
1.0028
1.00274
1.00186
1.0024
1.0031
1.00245
1.00166
1.00358
1.00335
1.00159
1.00282
1.0041
1.00219
1.00177
1.00421
0.996419
0.997867
0.996757
0.996327
0.996926
0.997818
0.996731
0.996571
0.99759
0.997748
0.996943
0.997164
0.997606
0.997425
0.997226
0.997541
0.998144
0.998254
0.998933
0.999933
1.00042
1.00053
1.00038
1.00013
1.00009
1.00022
1.00016
0.99989
0.999688
0.99968
0.999985
1.00095
1.00164
1.0017
1.00231
1.00276
1.00255
1.00224
1.00276
1.00291
1.00225
1.00254
1.00337
1.00313
1.00242
1.00307
1.00346
1.00329
1.0024
1.00337
0.99888
0.995162
0.996371
0.999074
0.996859
0.995435
0.997918
0.998274
0.996056
0.996668
0.998769
0.99716
0.996495
0.997759
0.998146
0.997112
0.997403
0.998828
0.99911
0.999404
1.00057
1.0007
1.00003
0.999984
1.00015
1.00019
1.00033
1.00034
0.999693
0.999602
1.00062
1.00088
1.001
1.00237
1.0028
1.00186
1.00209
1.00334
1.00282
1.00127
1.00324
1.00396
1.00179
1.00211
1.00469
1.00308
1.00113
1.0039
1.00493
1.00126
0.99613
0.996915
0.996897
0.997097
0.996877
0.996672
0.99711
0.997073
0.997093
0.996913
0.997053
0.997426
0.997123
0.997333
0.997522
0.997601
0.99794
0.998547
0.999437
1.00014
1.00066
1.00073
1.00037
1.00019
1.00014
1.00014
1.00022
1.00008
0.999695
0.9997
1.0001
1.0006
1.00147
1.00211
1.00233
1.00232
1.00259
1.00281
1.00254
1.00293
1.0031
1.00282
1.00306
1.00304
1.00327
1.00323
1.00348
1.0032
1.00314
1.00451
0.99531
0.999589
0.997604
0.994033
0.997041
0.999508
0.995944
0.995655
0.998487
0.997802
0.995882
0.997078
0.998709
0.997211
0.996699
0.997936
0.998344
0.998217
0.999139
1.00042
1.00058
1.00046
1.0006
1.00021
0.99993
1.00027
1.00021
0.999901
1.00005
0.999911
0.999835
1.00096
1.00193
1.00175
1.00192
1.00322
1.00285
1.00129
1.00278
1.00415
1.00233
1.00153
1.00444
1.00416
1.00076
1.00323
1.00609
1.00249
1.00113
1.00503
0.998314
0.995881
0.995644
0.997889
0.996934
0.995805
0.997597
0.997188
0.996688
0.996629
0.997508
0.997087
0.996796
0.997643
0.997525
0.997302
0.997944
0.998972
0.999548
1.00022
1.00081
1.00078
1.0004
1.00026
1.00026
1.00011
1.00007
1.00005
0.999862
0.999841
1.0003
1.00088
1.00128
1.00201
1.00261
1.0025
1.00234
1.00311
1.00296
1.00248
1.00334
1.0035
1.00293
1.00257
1.00463
1.00341
1.00217
1.00488
1.00483
1.00192
0.998595
0.993257
0.995902
0.999962
0.995721
0.994296
0.997716
0.998838
0.995555
0.996293
0.998417
0.997237
0.996434
0.997621
0.998169
0.997281
0.997822
0.999223
0.999619
1.00012
1.00097
1.00087
1.00032
1.00048
1.00042
0.999738
0.999799
1.00023
0.999834
0.999769
1.00059
1.00095
1.00112
1.00239
1.00289
1.00182
1.00223
1.00359
1.00284
1.00149
1.00369
1.00467
1.00147
1.00234
1.00588
1.00431
1.00072
1.00472
1.00689
1.00219
0.992979
0.999404
0.997951
0.993492
0.996814
0.998489
0.996155
0.995256
0.998396
0.997551
0.995979
0.99696
0.998039
0.997195
0.99676
0.998059
0.998542
0.998553
0.999623
1.00086
1.00104
1.00069
1.00062
1.0005
1.00018
0.999896
0.999763
0.999884
1.00014
1.00007
1.00011
1.00102
1.00203
1.0019
1.002
1.00312
1.00286
1.00196
1.00292
1.00415
1.00276
1.00181
1.00491
1.00415
1.00176
1.00355
1.00734
1.00247
1.00133
1.00848
0.99553
1.00005
0.996153
0.993125
0.996977
0.998604
0.995525
0.995498
0.997984
0.997487
0.996049
0.997088
0.997979
0.997013
0.997069
0.998011
0.998263
0.998463
0.999726
1.00087
1.00097
1.00085
1.00095
1.00056
1.00005
0.999904
0.999448
0.999333
1.00007
1.00041
1.00039
1.00126
1.0023
1.00213
1.002
1.00298
1.00309
1.00187
1.00279
1.00419
1.00274
1.00192
1.00464
1.00477
1.00171
1.00341
1.00724
1.00415
1.00175
1.00535
1.00019
0.989272
0.993823
1.00136
0.996376
0.992716
0.997851
0.99857
0.995439
0.995851
0.998598
0.99753
0.995909
0.997664
0.998405
0.997504
0.997892
0.999448
1.00024
1.00084
1.00156
1.00136
1.00067
1.00048
1.00022
0.999612
0.999457
0.999741
0.999797
1.00007
1.00087
1.00121
1.00141
1.00258
1.00283
1.00165
1.00205
1.00407
1.00285
1.00151
1.00425
1.00502
1.00164
1.00216
1.00765
1.00424
0.999375
1.00721
1.01086
0.998848
0.99409
0.993376
0.995532
0.998018
0.99542
0.995565
0.997343
0.99677
0.996113
0.997041
0.997488
0.996829
0.996884
0.997637
0.997472
0.997522
0.998266
0.999041
0.999726
1.00081
1.00159
1.00136
1.0006
1.00037
1.00001
0.999219
0.999125
0.999605
0.999789
1.00034
1.00139
1.00206
1.00205
1.00244
1.00283
1.00242
1.0021
1.00325
1.00344
1.00247
1.00304
1.0043
1.00337
1.00241
1.00481
1.00556
1.00241
1.00494
1.00788
1.00842
0.992661
1.00628
0.996829
0.990117
0.996959
1.00038
0.994811
0.994728
0.998585
0.997684
0.995157
0.997128
0.99853
0.997146
0.996858
0.998393
0.998384
0.998257
0.999894
1.00147
1.00177
1.00194
1.00168
1.00056
0.99972
0.999427
0.998853
0.998635
0.999659
1.00052
1.00068
1.00191
1.003
1.002
1.00156
1.00333
1.00288
1.00113
1.00311
1.00558
1.00219
1.00111
1.00635
1.00556
0.9988
1.00449
1.01211
1.00078
0.996728
1.02267

VECTORS velocity double
-9.76214e-07 -4.89555e-07 0
-1.20846e-06 -2.22888e-07 0
-9.93929e-07 -4.84598e-07 0
-8.73028e-07 -4.3878e-07 0
-2.9711e-07 -2.43943e-07 0
3.77374e-07 3.28741e-07 0
5.05096e-07 3.04564e-07 0
-4.55133e-07 -6.01799e-08 0
-1.76292e-07 7.86692e-07 0
1.50704e-07 1.09273e-06 0
-1.42882e-06 -3.23677e-07 0
-2.42084e-06 2.32182e-07 0
-4.60319e-07 1.73792e-06 0
-5.69274e-07 -1.06718e-07 0
-2.4822e-06 -7.88008e-07 0
-1.01298e-06 2.15931e-06 0
1.12363e-06 1.10741e-06 0
-1.06494e-06 -1.47484e-06 0
-2.14532e-06 1.67424e-06 0
3.91328e-08 2.66085e-06 0
-6.62773e-07 -1.69472e-06 0
-3.50242e-06 -8.25345e-08 0
-2.63732e-06 3.46437e-06 0
-1.69421e-06 -9.20368e-07 0
-3.89245e-06 -2.55332e-06 0
-3.80701e-06 2.56272e-06 0
-1.55213e-06 8.31231e-07 0
-2.55557e-06 -3.53001e-06 0
-3.34608e-06 1.89874e-07 0
-3.06664e-07 1.83019e-06 0
4.42739e-07 -2.61955e-06 0
-1.77079e-06 -1.52723e-06 0
-5.09968e-07 1.75957e-06 0
1.90139e-06 -9.07285e-07 0
-1.98497e-07 -1.99023e-06 0
-1.59446e-06 1.06528e-06 0
5.31816e-07 3.59651e-07 0
7.39067e-07 -1.57128e-06 0
-1.24707e-06 -3.5655e-08 0
-2.30835e-07 5.34619e-07 0
1.36494e-06 -9.33963e-07 0
9.53879e-07 -6.48452e-07 0
5.93771e-07 1.7783e-07 0
1.50416e-06 -2.03649e-07 0
1.25716e-06 -2.27086e-07 0
6.07298e-07 4.44608e-07 0
2.2251e-07 3.42191e-07 0
2.89149e-07 -2.39802e-07 0
-2.11235e-07 -7.73401e-08 0
-3.14689e-07 -1.87116e-07 0
-1.19471e-07 -1.45834e-07 0
4.40164e-07 1.49536e-07 0
-3.26966e-07 -4.63033e-07 0
-3.89628e-07 -2.787e-07 0
6.73848e-07 4.27714e-07 0
5.64188e-07 3.22102e-07 0
2.10804e-07 -5.08435e-07 0
4.52756e-07 1.57218e-07 0
9.94329e-07 4.0037e-07 0
-1.16425e-06 -1.81255e-06 0
-1.96065e-06 -1.06444e-06 0
-6.80158e-07 1.76702e-06 0
-1.39859e-06 -1.19977e-06 0
-4.01987e-06 -2.2136e-06 0
-2.59596e-06 3.08064e-06 0
-1.21635e-06 1.48427e-06 0
-3.41065e-06 -3.401e-06 0
-5.09407e-06 1.67174e-06 0
-3.14337e-06 3.72825e-06 0
-2.64209e-06 -2.18859e-06 0
-5.51548e-06 -1.30704e-06 0
-6.8985e-06 2.90189e-06 0
-4.03919e-06 5.0789e-07 0
-3.53819e-06 -1.08787e-06 0
-7.2229e-06 -3.80111e-07 0
-7.38269e-06 -1.16584e-08 0
-3.76994e-06 1.40553e-06 0
-4.23435e-06 -5.5008e-07 0
-7.37271e-06 -3.36107e-06 0
-6.21882e-06 1.45294e-06 0
-3.26042e-06 2.46137e-06 0
-3.84852e-06 -3.92765e-06 0
-6.0698e-06 -1.63356e-06 0
-4.35165e-06 3.77751e-06 0
-1.99342e-06 -1.3905e-06 0
-3.46118e-06 -3.07926e-06 0
-4.91811e-06 2.44708e-06 0
-2.11003e-06 1.34702e-06 0
-1.30303e-06 -1.80444e-06 0
-2.64867e-06 1.07504e-06 0
-1.83042e-06 1.85134e-06 0
3.57802e-07 -4.50931e-07 0
-2.41817e-07 -2.3545e-07 0
-6.32558e-07 5.19192e-07 0
-4.23782e-07 -2.35403e-07 0
-6.96102e-07 -3.7846e-07 0
-1.33048e-06 3.9505e-07 0
-1.64094e-06 -5.34921e-08 0
-9.91957e-07 5.89682e-07 0
-1.02178e-06 -2.20323e-07 0
-4.36725e-07 3.278e-07 0
-7.83033e-07 -1.2417e-06 0
6.08981e-08 -1.27424e-07 0
2.1272e-07 3.76838e-07 0
-3.48596e-08 5.97426e-07 0
-1.63183e-06 -5.29522e-07 0
-7.37121e-07 4.26677e-07 0
-8.05283e-07 6.9514e-07 0
-2.17341e-06 -2.36735e-06 0
-2.58216e-06 -1.7461e-06 0
7.10831e-07 2.00184e-06 0
-2.95823e-07 -1.61024e-06 0
-1.65908e-06 -4.55351e-06 0
7.96555e-07 3.49094e-06 0
2.32779e-06 2.36356e-06 0
-1.7861e-06 -7.53919e-06 0
-2.06823e-06 -6.74958e-08 0
3.98661e-08 8.1915e-06 0
-2.37729e-06 -7.787e-06 0
-6.57968e-06 -8.7263e-06 0
-4.44421e-06 1.1516e-05 0
-2.96869e-06 1.07359e-06 0
-7.42463e-06 -1.68092e-05 0
-9.02857e-06 6.22162e-06 0
-4.27252e-06 1.35669e-05 0
-4.31006e-06 -1.3541e-05 0
-8.86889e-06 -6.07997e-06 0
-6.84728e-06 1.70214e-05 0