# vtk DataFile Version 4.0
SiwiRVisFile
ASCII
DATASET STRUCTURED_POINTS
DIMENSIONS 25 25 1
ORIGIN 0 0 0
SPACING 1 1 1
POINT_DATA 625

SCALARS flags double 1
LOOKUP_TABLE default
1
1
1
1
1
1
1
1
1
1
1
1
1
1
1
1
1
1
1
1
1
1
1
1
1
1
1
1
1
1
1
1
1
1
1
1
1
1
1
1
1
1
1
1
1
1
1
1
1
1
1
1
1
1
1
1
1
1
1
1
1
1
1
1
1
1
1
1
1
1
1
1
1
1
1
1
1
1
1
1
1
1
1
1
1
1
1
1
1
1
1
1
1
1
1
1
1
1
1
1
1
1
1
1
1
1
1
1
1
1
1
1
1
1
1
1
1
1
1
1
1
1
1
1
1
1
1
1
1
1
1
1
1
1
1
1
1
1
1
1
1
1
1
1
1
1
1
1
1
1
1
1
1
1
1
1
1
1
1
1
1
1
1
1
1
1
1
1
1
1
1
1
1
1
1
1
1
1
1
1
1
1
1
1
1
1
1
1
1
1
1
1
1
1
1
1
1
1
1
1
1
1
1
1
1
1
1
1
1
1
1
1
1
1
1
1
1
1
1
1
1
1
1
1
1
1
1
1
1
1
1
1
1
1
1
1
1
1
1
1
1
1
1
1
1
1
1
1
1
1
1
1
1
1
1
1
1
1
1
1
1
1
1
1
1
1
1
1
1
1
1
1
1
1
1
1
1
1
1
1
1
1
1
1
1
1
1
1
1
1
1
1
1
1
1
1
1
1
1
1
1
1
1
1
1
1
1
1
1
1
1
1
1
1
1
1
1
1
1
1
1
1
1
1
1
1
1
1
1
1
1
1
1
1
1
1
1
1
1
1
1
1
1
1
1
1
1
1
1
1
1
1
1
1
1
1
1
1
1
1
1
1
1
1
1
1
1
1
1
1
1
1
1
1
1
1
1
1
1
1
1
1
1
1
1
1
1
1
1
1
1
1
1
1
1
1
1
1
1
1
1
1
1
1
1
1
1
1
1
1
1
1
1
1
1
1
1
1
1
1
1
1
1
1
1
1
1
1
1
1
1
1
1
1
1
1
1
1
1
1
1
1
1
1
1
1
1
1
1
1
1
1
1
1
1
1
1
1
1
1
1
1
1
1
1
1
1
1
1
1
1
1
1
1
1
1
1
1
1
1
1
1
1
1
1
1
1
1
1
1
1
1
1
1
1
1
1
1
1
1
1
1
1
1
1
1
1
1
1
1
1
1
1
1
1
1
1
1
1
1
1
1
1
1
1
1
1
1
1
1
1
1
1
1
1
1
1
1
1
1
1
1
1
1
1
1
1
1
1
1
1
1
1
1
1
1
1
1
1
1
1
1
1
1
1
1
1
1
1
1
1
1
1
1
1
1
1
1
1
1
1
1
1
1
1
1
1
1
1
1
1
1
1
1
1
1
1
1
1
1
1
1
1
1
1
1
1
1
1
1
1
1
1
1
1
1
1
1
1
1
1
1
1
1
1

SCALARS density double 1
LOOKUP_TABLE default
0.999729
0.999759
0.999885
0.999765
0.999686
0.999922
0.999935
0.999655
0.999803
1.00011
0.999814
0.999635
1.00006
1.00006
0.99961
0.999828
1.00017
0.99977
0.999615
1.0001
0.999999
0.999554
0.999881
1.00015
0.999681
1.00004
0.999504
0.999681
1.0001
0.999792
0.999581
0.999917
1
0.999732
0.999779
0.999978
0.999909
0.999817
0.99986
0.999905
0.999923
0.999867
0.999781
0.999891
0.999985
0.999805
0.999715
0.999975
0.999977
0.999661
0.999723
0.99992
0.999764
0.999725
0.999909
0.999817
0.999702
0.999954
0.999943
0.999659
0.999891
1.0001
0.999726
0.999728
1.00013
0.999896
0.999584
1.00001
1.00011
0.999568
0.999767
1.00023
0.999759
0.999503
1.00011
0.999585
1.0001
0.999899
0.999482
0.999804
1.00009
0.999772
0.999617
0.999968
1.00002
0.999735
0.999774
1.00001
0.999953
0.99976
0.999828
0.999984
0.999906
0.999761
0.999834
0.999947
0.99989
0.999775
0.999817
0.99993
1.00002
0.999466
0.999722
1.00001
0.99976
0.999703
0.999986
0.999816
0.999701
1.00001
0.999908
0.999696
0.99999
1.00001
0.999673
0.999877
1.0001
0.99969
0.99967
1.00022
0.999897
0.999437
1.00003
1.00024
0.999487
0.999793
0.999392
0.999716
1.0001
0.999844
0.999558
0.999861
1.0001
0.999734
0.999626
1.00002
1.00006
0.999731
0.999769
1.00007
0.999917
0.999663
0.999891
1.00002
0.999778
0.999777
0.999977
0.999872
0.999798
0.999924
0.999228
1.0002
0.999747
1
0.999901
1.00008
0.999542
0.999676
1.00005
0.99982
0.999801
1.00002
0.999849
0.999807
1.00005
0.999867
0.999678
1
1
1
0.999878
1.00035
0.999652
0.999455
1.00033
0.999679
0.999732
0.999445
1
0.999753
0.999943
0.999719
0.999471
0.999891
1.00016
0.999806
0.999701
1.00009
1.00007
0.999631
0.999807
1.00016
1
1
1
0.999976
0.999605
1.00003
1.0001
0.999625
0.999933
0.998557
0.999317
1
0.999527
0.999113
1.00006
0.999982
1
0.999933
1.00006
0.999868
0.999873
0.999936
0.99984
0.999995
0.999975
1
1
1
0.999879
0.999413
1.0002
1.0004
0.999424
0.998954
0.999603
0.999636
1
0.999728
0.999623
0.999425
0.999652
0.999741
0.99972
0.999984
1.00014
0.999762
0.999752
1.00022
0.999937
0.999518
1.00019
1.00036
0.999495
0.999947
1.00056
0.999627
0.99953
1.00051
0.998892
1.00036
0.999339
0.998152
0.999573
1.00031
0.999126
0.999162
1.00021
0.999974
0.999609
0.999872
1.00011
0.999993
0.999901
0.999813
0.999926
1.0002
0.999994
0.999548
1.00015
1.00043
0.999667
0.99949
1.00041
1.00007
0.998574
0.998919
1.00009
0.999144
0.998892
0.999833
1
0.99968
0.99969
1
0.999863
1.00003
1.00007
0.999652
0.999996
1.00041
0.999559
0.999623
1.00075
0.999926
0.999077
1.00057
1.0006
0.998931
0.999485
0.998182
0.999327
1.00034
0.999022
0.998368
0.99965
1.0002
0.998762
1
1.00028
1.00008
0.999733
0.999915
1.00011
1.00003
0.999872
0.999801
1.00006
1.0002
0.999853
0.999692
1.00011
1.00037
0.999724
0.998179
1.00073
0.999644
0.997749
0.99964
1.00046
0.9985
0.998879
0.999878
1.00002
0.99971
1.00001
1.00001
0.999875
1.0002
0.999866
0.999496
1.00052
1.00032
0.998888
1.00018
1.00124
0.999
0.998994
1.0015
0.999438
0.999981
0.998995
0.998634
0.999515
0.999781
0.998925
0.998876
0.999938
1.00006
0.999594
0.999845
1.00029
0.999965
0.999681
1.00002
1.00015
0.999921
0.999767
1.00006
0.999978
0.999939
1.00021
0.999742
0.999635
1.00062
0.99699
0.99887
1.00143
0.998558
0.997495
1.0006
1
0.999458
0.999382
1.00025
1.00002
0.99977
1.00011
0.999875
0.999969
1.00031
0.999345
0.999607
1.0014
0.999569
0.998275
1.00132
1.00132
0.997826
0.998293
0.999165
0.999687
0.99899
0.999107
0.999234
0.99898
1
0.999752
0.999882
1.00012
1
0.99966
1.00006
1.00032
0.999663
0.999665
1.00024
1.00013
0.999398
1.00023
1.00058
0.999062
0.999911
1.0014
0.997693
1.00223
0.999407
0.996317
1.00006
1.00134
0.99733
1
1.00054
1.00019
0.999151
1.00016
1.00047
0.999625
0.999808
1.00022
0.999697
1.0001
1
0.998056
1.00048
1.00219
0.998365
0.998066
1.00252
1.00103
0.997635
0.998209
1.00068
0.998845
0.998015
1.00002
1
0.999848
1.00003
0.999894
0.999961
1.00017
0.999915
0.999574
1.00023
1.00017
0.999558
1
1.00134
0.999164
0.99834
1.00205
1.00093
0.99683
1.00013
0.995309
0.998971
1.0021
0.998234
0.997044
1.00068
1
0.999217
0.99954
1.00085
0.999701
0.999299
1.00067
1.00031
0.999047
1
1
1
1.00149
0.999609
0.997571
1.00162
1.00228
0.997301
0.995211
1.00233
1.00016
0.995276
0.999463
1.00127
0.99802
0.998607
1.00063
1.00009
0.999909
0.999968
0.999944
0.999689
1.00046
1.0001
1
1
1
1
1
1
1
0.998677
1.00664
0.999141
1.00242
0.997778
0.995797
0.999727
1.00065
0.99809
0.99921
1.00083
0.999871
0.998995
1.00034
1.00098
0.998939
0.999354
1.00148
1
1
1
1
1.0049
1.01077
1.00156
1.00142
1.0079
1.00251
0.989974
0.996839
1.0048
1
0.996557
1.00072
1.00064
0.998548
1.0003
1
0.999892
0.999887
1.00095
0.999114
0.998732
1.00231
0.997745
0.999182
1.00983
1.00585
0.995199
1.00577
1.0146
0.998533
0.993768
0.996018
1.00036
0.999361
0.995865
0.998106
0.999779
0.999171
1.00015
1.00218
1.00132
1.00698
1
1.00084
1.00123
0.998362
1
0.99951
1.00339
1.00621
1.00166
1.0008
1.00792
1.00709
1.00385
0.994048
1.00963
0.998785
0.992056
0.9998
1.0008
0.997177
0.998564
1.0014
1.00135
1.00316
1.00837
1.00225
0.99498
0.999812
1.00314
1.00093
1.00643
1.00568
0.995332
1.00254
1.0149
1.00044
0.992942
1.0241

VECTORS velocity double
-3.18143e-06 1.36956e-06 0
-0.000144292 7.61293e-05 0
-0.000263397 2.15524e-06 0
-0.000258328 -2.55648e-05 0
-0.000243771 1.87503e-05 0
-0.00043209 9.05811e-05 0
-0.000534193 -2.64893e-05 0
-0.000471083 -3.13255e-05 0
-0.000478305 4.13071e-05 0
-0.000584723 1.07622e-05 0
-0.000534577 -4.73177e-05 0
-0.00046485 -8.84578e-06 0
-0.000439264 -5.55316e-06 0
-0.000443664 -1.26909e-05 0
-0.000419366 1.626e-07 0
-0.000409389 -1.43957e-05 0
-0.000369801 -1.34159e-05 0
-0.000399629 1.70772e-05 0
-0.000444086 2.4678e-05 0
-0.000378238 -7.78622e-05 0
-0.000239589 -1.20854e-05 0
-0.000254359 2.01183e-05 0
-0.000211439 -2.81497e-05 0
-9.53282e-05 -5.73356e-05 0
3.20897e-06 4.29668e-06 0
-9.02411e-05 0.000125661 0
-0.000400879 0.000332106 0
-0.000603987 7.37481e-05 0
-0.000760347 2.81678e-05 0
-0.001103 0.000255219 0
-0.0013447 0.000222152 0
-0.00128428 -3.85388e-05 0
-0.00142981 4.62945e-05 0
-0.00167096 0.000139955 0
-0.0016089 -6.5747e-05 0
-0.00138296 -0.000153708 0
-0.0014347 -2.59181e-06 0
-0.00141071 -9.26306e-05 0
-0.00113753 -0.000139469 0
-0.00104617 3.39918e-05 0
-0.00126256 2.90062e-05 0
-0.00125324 -8.77027e-05 0
-0.00108034 -1.12527e-06 0
-0.00108264 5.9136e-05 0
-0.00116923 -0.000187025 0
-0.000917271 -0.000226778 0
-0.00056101 -0.000108101 0
-0.000407528 -0.000116287 0
-0.000303271 -0.000257255 0
-7.50252e-05 -0.000108406 0
-0.000124632 0.000426393 0
-0.000318505 0.000494427 0
-0.000702352 0.000474833 0
-0.00139271 0.000436025 0
-0.00164604 0.000457988 0
-0.00160405 0.000237075 0
-0.0018964 0.000220516 0
-0.00235237 0.0002736 0
-0.00229259 6.51394e-05 0
-0.00219246 -0.000131276 0
-0.00226866 -0.000207482 0
-0.00205851 -0.000195637 0
-0.00173827 -0.000250124 0
-0.00174308 -0.000235625 0
-0.00166115 -2.9115e-05 0
-0.00145691 6.14089e-05 0
-0.00153999 -2.45365e-05 0
-0.00173592 -6.72207e-05 0
-0.00150919 -9.41087e-05 0
-0.00131153 -0.000181572 0
-0.00132138 -0.000476077 0
-0.00102027 -0.00055751 0
-0.000464171 -0.000338824 0
-0.000228365 -0.000343115 0
-8.24227e-05 -0.000334138 0
5.98787e-05 0.000524877 0
-0.000431862 0.000974576 0
-0.00136218 0.00118513 0
-0.00177696 0.000805209 0
-0.00160842 0.000388772 0
-0.00181232 0.000483887 0
-0.00235715 0.000659667 0
-0.00265789 0.000492952 0
-0.00268676 4.87295e-06 0
-0.00279912 -0.000142899 0
-0.00276399 -0.000319246 0
-0.00234618 -0.000557095 0
-0.00196286 -0.00044536 0
-0.00190374 -0.000307974 0
-0.00174119 -0.000213072 0
-0.00150245 -2.84716e-05 0
-0.00156056 0.000146603 0
-0.00184694 -2.10245e-05 0
-0.00178221 -0.000309377 0
-0.00140527 -0.000410206 0
-0.00120191 -0.000564889 0
-0.00115284 -0.000916164 0
-0.000713824 -0.000911831 0
-0.000165508 -0.000641683 0
5.73906e-05 -0.000405174 0
-0.000152199 0.00064993 0
-0.00112908 0.00224443 0
-0.00169692 0.00149431 0
-0.00126048 0.000574303 0
-0.00122681 0.000477915 0
-0.00194727 0.00115548 0
-0.00242266 0.000959646 0
-0.00267535 0.000705103 0
-0.00315751 0.00031316 0
-0.00320372 -0.000309534 0
-0.00270733 -0.000696172 0
-0.00247868 -0.000825998 0
-0.0022548 -0.000781644 0
-0.00174415 -0.000596906 0
-0.00147119 -0.000335044 0
-0.00153174 -0.00011018 0
-0.00129585 0.000128615 0
-0.00102559 7.58197e-05 0
-0.00129672 -0.000221217 0
-0.00154148 -0.000798122 0
-0.00122212 -0.000740274 0
-0.000954246 -0.000964395 0
-0.000805154 -0.00134094 0
-0.000444683 -0.00122757 0
-4.0449e-05 -0.00034705 0
-0.000382496 0.00143866 0
-0.000933954 0.00282284 0
-0.000944159 0.00136019 0
-0.000727532 0.000149744 0
-0.0006704 0.000836879 0
-0.00107259 0.0018054 0
-0.00197591 0.00173726 0
-0.0031185 0.00120975 0
-0.00357315 0.000455251 0
-0.00316615 -0.000626406 0
-0.00257087 -0.00112565 0
-0.00234657 -0.00109159 0
-0.00210419 -0.00115401 0
-0.00166234 -0.000958146 0
-0.00118442 -0.00063925 0
-0.000819489 -0.000351978 0
-0.000576431 -7.03698e-05 0
-0.000460349 4.28452e-05 0
-0.000452281 -5.22255e-05 0
-0.000780161 -0.000498046 0
-0.00105744 -0.000935697 0
-0.000770462 -0.00144916 0
-0.000458797 -0.00142235 0
-0.000540836 -0.00145121 0
-0.000250377 -0.0008179 0
-0.000104051 0.00216943 0
-0.000149893 0.00242767 0
-2.79356e-05 0.00143169 0
0 0 0
-0.000192764 0.0012257 0
-0.000847496 0.00235614 0
-0.00201794 0.0031856 0
-0.00293952 0.00200342 0
-0.0027346 9.59287e-05 0
-0.00256636 -0.000959928 0
-0.00262484 -0.00144712 0
-0.0021645 -0.00151158 0
-0.00163254 -0.00143139 0
-0.00155662 -0.00130697 0
-0.00125555 -0.00118123 0
-0.000641427 -0.000741576 0
-0.000144535 -0.000412436 0
0 0 0
0 0 0
0 0 0
-0.000489844 -0.000655515 0
-0.00080474 -0.0018508 0
-0.000305098 -0.00159907 0
-5.90687e-05 -0.00122771 0
-2.28931e-05 -0.0011851 0
0.000409329 0.00172716 0
0.00022585 0.00292874 0
-0.000149372 0.00137273 0
0 0 0
-0.000102183 0.00156672 0
-0.00101972 0.00358312 0
-0.00174576 0.00372345 0
-0.00163231 0.00221039 0
-0.00140849 -8.7117e-05 0
-0.00140904 -0.00106111 0
-0.00158139 -0.00144787 0
-0.00172662 -0.00169665 0
-0.0018205 -0.00157058 0
-0.00169964 -0.00168649 0
-0.00119259 -0.00157507 0
-0.00059163 -0.0012748 0
-0.00011618 -0.000826059 0
0 0 0
0 0 0
0 0 0
-4.44297e-05 -0.000422124 0
-0.000427616 -0.00138196 0
-0.000483 -0.00234811 0
0.000120907 -0.00182039 0
0.000279716 -0.000889881 0
-0.000225062 0.00143018 0
-0.000351419 0.00357753 0
-8.28473e-05 0.00102619 0
0 0 0
-0.000112556 0.00188792 0
-0.000654589 0.00482098 0
-0.000712723 0.00332373 0
-0.000208707 0.00157901 0
0 0 0
-0.000426876 -0.000599872 0
-0.00118888 -0.000961498 0
-0.00190091 -0.00137619 0
-0.00205371 -0.00167784 0
-0.00145872 -0.00208432 0
-0.00114142 -0.00184985 0
-0.00129947 -0.00187382 0
-0.000635714 -0.00136207 0
0 0 0
0 0 0
0 0 0
9.71027e-05 -0.00030388 0
0.000199967 -0.00101682 0
-7.91623e-05 -0.00227269 0
-0.000452747 -0.00215961 0
-0.000212902 -0.000667196 0
-0.0002847 0.0022048 0
-7.00315e-05 0.00274841 0
0.000243624 0.00109271 0
0 0 0
-0.000783916 0.00270439 0
-0.00167012 0.0045716 0
-0.00145538 0.00342853 0
-0.00111161 0.00116416 0
-0.00101609 8.13629e-05 0
-0.00100809 -8.60744e-05 0
-0.00146972 -1.80328e-05 0
-0.00205039 -0.00107224 0
-0.00201005 -0.0019339 0
-0.00210431 -0.00216579 0
-0.00216012 -0.0020737 0
-0.00185301 -0.00215389 0
-0.00192293 -0.00142711 0
-0.00179791 -0.000754522 0
-0.000950842 -0.000240643 0
-0.000718964 -8.23618e-05 0
-0.000532173 -0.000420826 0
0.000134078 -0.00197939 0
0.000371199 -0.00153312 0
-0.000337727 -0.0016127 0
-0.000338017 -0.00163897 0
0.000304946 0.00219703 0
0.000611248 0.00213995 0
0.000269069 0.00164713 0
-0.00129155 0.00123976 0
-0.00202213 0.00357969 0
-0.0020788 0.00456006 0
-0.00254788 0.00368249 0
-0.00213413 0.000601426 0
-0.00116385 -0.000398588 0
-0.00151481 0.000363827 0
-0.00219245 0.000298681 0
-0.00161746 -0.00122992 0
-0.00144512 -0.00175021 0
-0.00249787 -0.0016794 0
-0.00309745 -0.00206442 0
-0.00286135 -0.00212498 0
-0.0031025 -0.00108574 0
-0.00361161 -0.00134594 0
-0.00283681 -0.000873571 0
-0.00159163 -0.000718169 0
-0.00100502 -0.000588003 0
-0.00110487 -0.00225449 0
-0.000486979 -0.00169448 0
0.000357606 -0.00130956 0
0.000317567 -0.00152336 0
0.000440032 0.00109568 0
0.00011048 0.00341783 0
-0.000917118 0.00236787 0
-0.00139531 0.00205399 0
-0.00250118 0.00431863 0
-0.00359886 0.00533664 0
-0.00179601 0.00192051 0
0 0 0
-0.000894371 9.64827e-05 0
-0.000904743 0.000356221 0
0 0 0
-0.00100775 -0.000726893 0
-0.0024648 -0.000903258 0
-0.0026176 -0.00132811 0
-0.00271362 -0.00157479 0
-0.00384633 -0.00158717 0
-0.00410848 -0.00143936 0
-0.00347684 -0.00107086 0
-0.00376495 -0.00130551 0
-0.0035642 -0.00224054 0
-0.00189551 -0.00151588 0
-0.00142552 -0.0018103 0
-0.00135137 -0.00312045 0
-0.000305749 -0.0028733 0
0.000321565 -0.000787186 0
-0.000639989 0.00136378 0
-0.000806037 0.00375356 0
-0.000629814 0.00323565 0
-0.0024476 0.00330637 0
-0.00368927 0.00488031 0
-0.00208322 0.00415927 0
-0.00079289 0.000292086 0
-0.00187013 0.000330588 0
-0.00131347 -0.000220901 0
0 0 0
-0.000465859 0.000453119 0
-0.00158597 0.000558575 0
-0.00234779 -0.000215258 0
-0.00247571 -0.00117197 0
-0.00304045 -0.000840889 0
-0.00416355 -0.000832519 0
-0.00443229 -0.00164206 0
-0.00386535 -0.00119119 0
-0.00375185 -0.00141387 0
-0.00407616 -0.0024641 0
-0.00320942 -0.00274128 0
-0.00152165 -0.00259005 0
-0.00108114 -0.00258525 0
-0.00189312 -0.00311142 0
-0.000955574 -0.00144689 0
-0.00024622 0.002739 0
-0.000337038 0.00240201 0
-0.000869766 0.00435722 0
-0.00283781 0.0060179 0
-0.00337234 0.00432101 0
-0.00314039 0.00262038 0
-0.00477325 0.00203517 0
-0.00489509 -8.54806e-05 0
-0.00327416 -0.00166881 0
-0.00302726 -0.000458548 0
-0.00315263 0.00128844 0
-0.0026986 0.000950934 0
-0.00200012 -0.000212493 0
-0.00281626 -0.000329352 0
-0.003672 -0.000280947 0
-0.00306689 -0.000747277 0
-0.00364146 -0.000695329 0
-0.00511649 -0.0016256 0
-0.00419632 -0.00228347 0
-0.00328825 -0.00188763 0
-0.00403989 -0.0035517 0
-0.00341114 -0.0052377 0
-0.00115248 -0.00270665 0
-0.000541511 -0.00268694 0
-0.00020795 -0.00356936 0
0.000514457 0.0023557 0
-0.000552871 0.00391024 0
-0.00247191 0.00581748 0
-0.00242167 0.00611791 0
-0.00222647 0.00476134 0
-0.00367497 0.00404724 0
-0.00427859 0.00282841 0
-0.00471915 -0.000429562 0
-0.00485051 -0.00225285 0
-0.0041802 -0.0010466 0
-0.00366177 0.00093537 0
-0.00288139 -2.61381e-05 0
-0.00237619 -0.000505502 0
-0.00242165 0.00021425 0
-0.00256329 -0.00010322 0
-0.00272865 -0.000616969 0
-0.00358712 0.000403079 0
-0.00454077 -0.00137605 0
-0.00458461 -0.00236413 0
-0.0035612 -0.0030643 0
-0.00281553 -0.00302256 0
-0.0038623 -0.00496793 0
-0.00290777 -0.00516708 0
-0.000199361 -0.00406678 0
0.000817017 -0.00242047 0
-3.61212e-05 0.00162858 0
-0.0013726 0.00699967 0
-0.00217676 0.00620942 0
-0.00161531 0.00457034 0
-0.00217022 0.00622188 0
-0.00332775 0.0057618 0
-0.0017634 0.000830366 0
0 0 0
-0.00174563 -0.00127158 0
-0.00285103 -0.00119645 0
-0.00132055 -0.000378781 0
-0.000905093 -0.000368888 0
-0.00162748 5.76382e-05 0
-0.00122671 -0.000209957 0
-0.00113803 0.000133236 0
-0.00285415 0.000755413 0
-0.00288285 0.000163841 0
-0.00147273 -0.00099431 0
-0.0037243 -0.000769146 0
-0.00588424 -0.00508011 0
-0.00372105 -0.0036123 0
-0.00275437 -0.00386385 0
-0.00341704 -0.006975 0
-0.00294176 -0.00738078 0
-0.000480923 -0.00236945 0
-0.00157699 0.0040021 0
-0.00171289 0.00574456 0
-8.78506e-05 0.00595241 0
-0.00190046 0.00669188 0
-0.00261752 0.00571262 0
-0.000203535 0.00355023 0
0.00065303 0.000451833 0
0 0 0
0.000268292 -0.000390848 0
8.63806e-05 -0.00107357 0
-0.000172901 -0.00127042 0
0 0 0
-0.000213953 0.000265349 0
-0.000841138 2.94334e-05 0
-0.00138597 0.000627856 0
-0.00125194 0.00119209 0
-0.000908056 -0.000623604 0
-0.00109994 -4.06818e-05 0
-0.00157894 0.000310414 0
-0.00324744 -0.00278677 0
-0.00490731 -0.00453816 0
-0.00361745 -0.00651843 0
-0.00185153 -0.00475636 0
-0.00392525 -0.00661931 0
-0.00207993 -0.00599795 0
0.000732261 0.00536177 0
0.000577354 0.00422576 0
-0.00184047 0.00737573 0
-0.00406748 0.00892287 0
-0.00298186 0.00405488 0
-0.00105385 0.00119709 0
-0.000243062 0.00123827 0
0 0 0
-0.000224462 -0.000425806 0
-0.000455031 -0.000956303 0
-0.00106647 -0.00060711 0
-0.000809845 -0.000265822 0
0.000114039 -0.000125809 0
-0.000387569 0.00119623 0
-0.000711033 0.00101917 0
0.000389434 -2.44847e-05 0
8.78414e-05 -0.000358339 0
-0.000633784 0.000324224 0
0 0 0
-0.000222681 0.000282391 0
-0.00351475 -0.00296573 0
-0.00665633 -0.00886395 0
-0.00347016 -0.00586556 0
-0.000354338 -0.00726393 0
0.00126398 -0.00822633 0
0.000871398 0.00289719 0
-0.00227145 0.00988823 0
-0.00601247 0.00971172 0
-0.00391153 0.00585357 0
-0.00220344 0.00367128 0
-0.0026668 0.00117736 0
-0.00129305 -0.00114944 0
0 0 0
-0.000539307 0.000523215 0
-0.000966366 -0.00102768 0
-0.00121833 -0.000360777 0
-0.00181598 -0.000612534 0
-0.00207101 -0.000257297 0
-0.000522843 0.000149044 0
0.000696133 0.000487294 0
0.000305776 0.000369981 0
7.18272e-06 0.000104791 0
3.20526e-05 -3.12768e-05 0
0 0 0
-3.53916e-05 0.000637221 0
-1.09037e-05 -0.000128148 0
-0.00344456 -0.00416382 0
-0.00602705 -0.00972908 0
-0.00371036 -0.0131853 0
0.00106274 -0.0052577 0
-0.00198289 0.00445486 0
-0.00473282 0.0137657 0
-0.00395634 0.00912496 0
-0.00514438 0.00563475 0
-0.00940149 0.00455031 0
-0.0092116 3.90363e-05 0
-0.00368519 -0.00503769 0
0 0 0
-0.00165312 0.00194946 0
-0.00322242 7.91209e-05 0
-0.00212067 -0.00133815 0
-0.000949817 -7.40698e-05 0
-0.00148237 -6.49668e-05 0
-0.00125135 -0.00126996 0
-0.000559787 -0.00088125 0
7.42442e-05 0.00149005 0
0 0 0
0 0 0
0 0 0
-0.000156515 5.71823e-05 0
0.00084477 0.000134255 0
6.50652e-05 -0.000214738 0
-0.00563225 -0.0060042 0
-0.0107565 -0.0168098 0
-0.00311917 -0.00973319 0
-0.00256646 0.0111492 0
-0.00234593 0.00890098 0
-0.00151815 0.0102443 0
-0.00803572 0.0136432 0
-0.0086322 0.00296542 0
-0.00542956 -0.00263119 0
-0.0085406 -0.00638214 0
-0.00877232 -0.00249771 0
-0.00274276 -0.000492108 0
-0.00125446 0.00197036 0
-0.00408637 -0.00221773 0
-0.00329734 -0.000747877 0
-0.000987249 -0.00176319 0
-0.00020514 0.000119111 0
-0.00185799 -0.00112425 0
-0.000908454 9.76032e-05 0
0 0 0
0 0 0
0 0 0
0 0 0
0 0 0
0 0 0
0 0 0
-0.00515441 -0.0112256 0
-0.00353237 -0.0211305 0
0.00361559 0.00957455 0
-0.000994294 0.0132763 0
-0.0108071 0.014995 0
-0.0104149 0.0138269 0
-0.00523908 0.000805988 0
-0.00384517 -0.00178036 0
-0.00814365 -0.00218443 0
-0.0104418 -0.00510867 0
-0.00738116 -0.00392366 0
-0.00407198 0.00143398 0
-0.0027601 -0.00122238 0
-0.00189161 -0.00223604 0
-0.000491072 -0.00443317 0
0.00205501 0.000205834 0
0.00105959 0.000902304 0
9.55593e-05 -0.00148211 0
0 0 0
0 0 0
0 0 0
0 0 0
-0.00402254 0.00329573 0
-0.0111597 0.00012296 0
-0.00794175 -0.00214598 0
0.00301488 -0.0165593 0
0.00814363 -0.0174667 0
-0.00270718 0.00770827 0
-0.0133249 0.0293894 0
-0.0103136 0.0120526 0
0.000180107 0.00536477 0
0 0 0
-0.00174767 0.000284567 0
-0.00143238 0.000197455 0
-0.0028833 -0.00412254 0
-0.00575091 -0.00545404 0
-0.00271822 -0.00504229 0
0 0 0
0.000349973 -0.00454009 0
-0.00175442 -0.00257641 0
-0.00201764 -0.00405036 0
0.00189123 0.000845779 0
-0.000332333 0.00280569 0
-0.00439913 0.000273309 0
-0.00193166 -0.00216781 0
1.31222e-05 0.000962803 0
-0.00716966 0.00581242 0
-0.00790175 0.00593691 0
-0.00441461 0.00211932 0
-0.00525601 -0.00458188 0
-0.00755671 -0.0313544 0
-0.00160604 -0.0106749 0
-0.00633095 0.0211537 0
-0.00707868 0.0230754 0
0.00593842 0.00239944 0
0.0161487 -1.04511e-05 0
0.0156454 0.00405638 0
0.0120508 -0.000558947 0
0.0156868 -0.000954599 0
0.0167015 -0.00100525 0
0.0101682 -0.00153306 0
0.00571658 -0.00653226 0
0.0108406 -0.00376152 0
0.00788737 0.000707837 0
0 0 0
0.00211707 -0.00663255 0
0.0050589 2.26943e-05 0
0.00183124 0.00675173 0
0 0 0
0.00251578 -0.00574739 0
0.00605798 0.00328781 0
0.00295044 0.0088435 0
0.00686663 0.000669945 0
0.0115049 0.000436598 0
0.00777459 0.000551493 0
-0.00628828 -0.0226892 0
-0.00616978 -0.0215234 0
0.0234888 0.0152542 0
0.051543 0.00360924 0
0.0541455 -0.0019612 0
0.0489154 -0.00172226 0
0.0523343 0.00378383 0
0.0560139 -0.00139138 0
0.0525346 -0.00115385 0
0.0511657 2.27628e-05 0
0.0531865 0.00109799 0
0.0520569 -0.00202438 0
0.0435084 -0.0038228 0
0.0438513 0.0038518 0
0.0494859 -0.000417196 0
0.0440901 -0.00359845 0
0.0384536 -0.000358817 0
0.0441744 0.00445504 0
0.0495003 -0.000746001 0
0.0441805 -0.00376036 0
0.0398053 0.00105698 0
0.0491768 0.00450502 0
0.0517062 -0.00213342 0
0.0485658 6.41661e-05 0
0.0519666 0.00347173 0
0.0529978 -0.00334954 0
0.025544 -0.0171881 0


