# vtk DataFile Version 4.0
SiwiRVisFile
ASCII
DATASET STRUCTURED_POINTS
DIMENSIONS 25 25 1
ORIGIN 0 0 0
SPACING 1 1 1
POINT_DATA 625

SCALARS flags double 1
LOOKUP_TABLE default
1
1
1
1
1
1
1
1
1
1
1
1
1
1
1
1
1
1
1
1
1
1
1
1
1
1
1
1
1
1
1
1
1
1
1
1
1
1
1
1
1
1
1
1
1
1
1
1
1
1
1
1
1
1
1
1
1
1
1
1
1
1
1
1
1
1
1
1
1
1
1
1
1
1
1
1
1
1
1
1
1
1
1
1
1
1
1
1
1
1
1
1
1
1
1
1
1
1
1
1
1
1
1
1
1
1
1
1
1
1
1
1
1
1
1
1
1
1
1
1
1
1
1
1
1
1
1
1
1
1
1
1
1
1
1
1
1
1
1
1
1
1
1
1
1
1
1
1
1
1
1
1
1
1
1
1
1
1
1
1
1
1
1
1
1
1
1
1
1
1
1
1
1
1
1
1
1
1
1
1
1
1
1
1
1
1
1
1
1
1
1
1
1
1
1
1
1
1
1
1
1
1
1
1
1
1
1
1
1
1
1
1
1
1
1
1
1
1
1
1
1
1
1
1
1
1
1
1
1
1
1
1
1
1
1
1
1
1
1
1
1
1
1
1
1
1
1
1
1
1
1
1
1
1
1
1
1
1
1
1
1
1
1
1
1
1
1
1
1
1
1
1
1
1
1
1
1
1
1
1
1
1
1
1
1
1
1
1
1
1
1
1
1
1
1
1
1
1
1
1
1
1
1
1
1
1
1
1
1
1
1
1
1
1
1
1
1
1
1
1
1
1
1
1
1
1
1
1
1
1
1
1
1
1
1
1
1
1
1
1
1
1
1
1
1
1
1
1
1
1
1
1
1
1
1
1
1
1
1
1
1
1
1
1
1
1
1
1
1
1
1
1
1
1
1
1
1
1
1
1
1
1
1
1
1
1
1
1
1
1
1
1
1
1
1
1
1
1
1
1
1
1
1
1
1
1
1
1
1
1
1
1
1
1
1
1
1
1
1
1
1
1
1
1
1
1
1
1
1
1
1
1
1
1
1
1
1
1
1
1
1
1
1
1
1
1
1
1
1
1
1
1
1
1
1
1
1
1
1
1
1
1
1
1
1
1
1
1
1
1
1
1
1
1
1
1
1
1
1
1
1
1
1
1
1
1
1
1
1
1
1
1
1
1
1
1
1
1
1
1
1
1
1
1
1
1
1
1
1
1
1
1
1
1
1
1
1
1
1
1
1
1
1
1
1
1
1
1
1
1
1
1
1
1
1
1
1
1
1
1
1
1
1
1
1
1
1
1
1
1
1
1
1
1
1
1
1
1
1
1
1
1
1
1
1
1
1
1
1
1
1
1
1
1
1
1
1
1
1
1
1
1
1
1
1
1
1
1
1
1
1
1
1
1
1
1
1
1
1
1
1
1
1
1
1
1
1
1
1
1
1
1
1
1
1
1
1
1
1
1
1
1
1
1
1

SCALARS density double 1
LOOKUP_TABLE default
0.999767
0.999796
0.999913
0.999793
0.99972
0.999952
0.999959
0.999684
0.999832
1.00014
0.999846
0.999672
1.00011
1.0001
0.999664
0.999893
1.00025
0.999854
0.999713
1.00021
1.00012
0.99968
1.00002
1.00029
0.99982
1.00007
0.999537
0.999711
1.00013
0.999822
0.99961
0.999943
1.00003
0.999762
0.999808
1.00001
0.999946
0.999859
0.999904
0.999959
0.99999
0.99994
0.999864
0.99999
1.00009
0.99992
0.99984
1.00011
1.00011
0.999799
0.999751
0.999947
0.999798
0.999758
0.999932
0.999844
0.999733
0.999979
0.999968
0.99969
0.999923
1.00013
0.999766
0.999775
1.00019
0.999957
0.999657
1.0001
1.0002
0.999673
0.999888
1.00035
0.999887
0.999639
1.00025
0.999616
1.00013
0.999926
0.999507
0.999832
1.00012
0.999798
0.999641
0.999993
1.00005
0.999766
0.999805
1.00004
0.999997
0.999811
0.999885
1.00006
0.999992
0.999855
0.999939
1.00007
1.00002
0.999904
0.999952
1.00007
1.00004
0.999491
0.999743
1.00003
0.999792
0.999725
1
0.999842
0.999727
1.00003
0.999934
0.999729
1.00002
1.00005
0.999721
0.999935
1.00017
0.999766
0.999768
1.00033
1.00001
0.999558
1.00016
1.00038
0.999617
0.999806
0.999403
0.999741
1.00013
0.999865
0.999578
0.999881
1.00012
0.999754
0.999649
1.00004
1.00009
0.999763
0.999805
1.00011
0.999966
0.999723
0.999968
1.00012
0.999889
0.999895
1.0001
0.999997
0.999926
1.00006
0.999234
1.00021
0.999757
1
0.999911
1.0001
0.999558
0.999687
1.00007
0.999844
0.999823
1.00004
0.999876
0.999838
1.00009
0.99991
0.999725
1
1
1
0.999998
1.00047
0.99977
0.999578
1.00046
0.999679
0.999728
0.999435
1
0.999764
0.999944
0.999718
0.999484
0.999909
1.00018
0.999826
0.999721
1.00011
1.0001
0.999662
0.999839
1.00019
1
1
1
1.00009
0.999718
1.00015
1.00022
0.999744
0.999915
0.998536
0.9993
1
0.999521
0.999097
1.00006
0.999986
1
0.999943
1.00007
0.999883
0.99989
0.999957
0.999865
1.00002
1
1
1
1
0.999979
0.999513
1.00031
1.00051
0.999536
0.998919
0.999571
0.999607
1
0.999696
0.999604
0.999415
0.999627
0.999734
0.999728
0.999987
1.00015
0.999777
0.999767
1.00024
0.999964
0.999547
1.00023
1.00041
0.999565
1.00003
1.00066
0.999728
0.999629
1.00061
0.99885
1.00031
0.999287
0.998097
0.999523
1.00028
0.9991
0.99914
1.00022
0.99997
0.999607
0.99988
1.00012
1
0.999919
0.999836
0.999954
1.00024
1.00005
0.999613
1.00023
1.00052
0.999759
0.999587
1.00051
1.00001
0.998514
0.998857
1.00004
0.99909
0.998841
0.999783
1
0.999667
0.999666
1
0.999861
1.00002
1.00008
0.999665
1.00001
1.00044
0.9996
0.999669
1.00081
0.999999
0.999155
1.00065
1.00069
0.999023
0.999413
0.998114
0.99926
1.00027
0.99896
0.998303
0.999586
1.00015
0.998707
1
1.00025
1.00006
0.999729
0.999917
1.00012
1.00005
0.999899
0.999835
1.0001
1.00026
0.99992
0.999765
1.00019
1.00045
0.999812
0.998097
1.00066
0.999566
0.997669
0.999568
1.00039
0.998431
0.99882
0.999814
0.999973
0.999682
0.999986
0.99999
0.999867
1.0002
0.999881
0.999513
1.00055
1.00037
0.998942
1.00024
1.00131
0.999081
0.999066
1.00158
0.999348
0.999888
0.998907
0.998548
0.999428
0.9997
0.998851
0.998808
0.999881
1.00002
0.999555
0.999811
1.00027
0.999955
0.999678
1.00003
1.00017
0.999953
0.999806
1.00011
1.00004
1.00001
1.00028
0.999827
0.999713
1.00052
0.996888
0.998773
1.00133
0.998461
0.997405
1.00051
1
0.999404
0.999328
1.0002
0.999993
0.999749
1.00009
0.999862
0.999972
1.00033
0.999371
0.999637
1.00145
0.999637
0.998337
1.00138
1.0014
0.99791
0.998181
0.999059
0.999578
0.998884
0.999005
0.999132
0.998878
1
0.999691
0.999823
1.00006
1
0.999625
1.00003
1.0003
0.999659
0.999668
1.00026
1.00017
0.999456
1.00028
1.00065
0.999144
0.999973
1.00147
0.997577
1.00211
0.999289
0.996202
0.999949
1.00123
0.997219
1
1.00047
1.00012
0.999092
1.00011
1.00043
0.999597
0.999788
1.00021
0.999693
1.00011
1
0.998118
1.00053
1.00226
0.998445
0.998128
1.00257
1.00091
0.997506
0.998088
1.00056
0.998728
0.997903
0.999913
1
0.99977
0.999958
0.999826
0.999907
1.00013
0.999873
0.99954
1.00021
1.00016
0.999555
1
1.0014
0.999253
0.998398
1.00209
1.00102
0.996917
0.999996
0.995183
0.99885
1.00198
0.99811
0.996931
1.00058
1
0.999131
0.999465
1.00078
0.999637
0.999247
1.00063
1.00027
0.999019
1
1
1
1.00156
0.999684
0.997638
1.00168
1.00234
0.997376
0.99508
1.0022
1.00003
0.995153
0.999345
1.00116
0.99791
0.998512
1.00054
1.00001
0.999833
0.9999
0.999884
0.999643
1.00041
1.00006
1
1
1
1
1
1
1
0.998688
1.00665
0.999012
1.00228
0.997642
0.995682
0.999618
1.00053
0.997977
0.999111
1.00073
0.999779
0.998915
1.00027
1.00091
0.998888
0.999316
1.00143
1
1
1
1
1.00487
1.01071
1.00155
1.00142
1.00789
1.00236
0.989837
0.996712
1.00467
1
0.996438
1.00061
1.00053
0.998445
1.0002
1
0.999823
0.999827
1.0009
0.999061
0.998705
1.00228
0.997687
0.999139
1.00978
1.00581
0.99517
1.00576
1.01457
0.998484
0.993625
0.995886
1.00023
0.999221
0.995737
0.997988
0.999662
0.999052
1.00006
1.00209
1.00122
1.0069
1
1.00079
1.00118
0.998316
1
0.999466
1.00337
1.00615
1.00164
1.00077
1.00789
1.00702
1.00388
0.993914
1.0095
0.998643
0.991923
0.999681
1.00067
0.997057
0.998454
1.00129
1.00125
1.00307
1.00828
1.00217
0.994936
0.999782
1.00309
1.00089
1.00635
1.00566
0.995258
1.00256
1.01481
1.00045
0.992881
1.02408

VECTORS velocity double
-5.37801e-07 4.39019e-06 0
-0.000143114 8.28596e-05 0
-0.000263373 5.4683e-06 0
-0.000258913 -1.93609e-05 0
-0.000246636 2.26301e-05 0
-0.000438018 9.68848e-05 0
-0.000545292 -2.08023e-05 0
-0.000486014 -2.67638e-05 0
-0.000493079 4.39162e-05 0
-0.00059728 1.35139e-05 0
-0.000542775 -4.64768e-05 0
-0.000467494 -7.5112e-06 0
-0.000435684 -5.31429e-06 0
-0.000433331 -1.22748e-05 0
-0.000404556 1.73121e-06 0
-0.000393279 -1.17809e-05 0
-0.000353136 -1.11589e-05 0
-0.000383164 2.08181e-05 0
-0.000429229 3.00002e-05 0
-0.000364679 -7.05271e-05 0
-0.000227326 -1.76178e-06 0
-0.000246202 3.42173e-05 0
-0.000207132 -1.37653e-05 0
-9.38437e-05 -4.20399e-05 0
2.7211e-06 1.69419e-05 0
-8.77435e-05 0.000134555 0
-0.000400795 0.00035167 0
-0.00060964 8.81322e-05 0
-0.000769969 4.56101e-05 0
-0.00112106 0.000274756 0
-0.00137335 0.000243496 0
-0.00132227 -1.66437e-05 0
-0.00147697 6.32521e-05 0
-0.00172032 0.000148646 0
-0.00165337 -6.10076e-05 0
-0.00141504 -0.000155574 0
-0.00144752 -7.12122e-06 0
-0.00140269 -9.88277e-05 0
-0.0011129 -0.00014282 0
-0.00100844 3.35853e-05 0
-0.00121605 3.21899e-05 0
-0.00120521 -8.29063e-05 0
-0.00103326 3.05303e-06 0
-0.00103733 6.23731e-05 0
-0.00112867 -0.00018752 0
-0.000883004 -0.000228161 0
-0.000534503 -0.000109578 0
-0.000390864 -0.000121203 0
-0.000296598 -0.00026409 0
-7.33395e-05 -0.000119258 0
-0.000123787 0.000443355 0
-0.000321583 0.000527427 0
-0.000717283 0.000508915 0
-0.00141841 0.000465659 0
-0.00168261 0.000500985 0
-0.00165735 0.00027825 0
-0.00196452 0.000261492 0
-0.00243442 0.00030684 0
-0.00238151 8.00341e-05 0
-0.00227481 -0.000132967 0
-0.00233076 -0.00022487 0
-0.0020932 -0.000220899 0
-0.00174381 -0.000276518 0
-0.001723 -0.000253359 0
-0.00162262 -3.88129e-05 0
-0.00140443 6.16764e-05 0
-0.0014808 -1.43997e-05 0
-0.0016755 -5.60012e-05 0
-0.00145029 -7.6244e-05 0
-0.00125848 -0.000159608 0
-0.00127737 -0.000446291 0
-0.000986057 -0.0005233 0
-0.000438915 -0.000300171 0
-0.000217288 -0.000307114 0
-8.25863e-05 -0.000311152 0
6.18689e-05 0.000549304 0
-0.000444417 0.00103066 0
-0.0013987 0.00124176 0
-0.00182101 0.000850487 0
-0.00165315 0.000448138 0
-0.00187484 0.000554724 0
-0.00244547 0.000725817 0
-0.00276714 0.000547497 0
-0.00280378 2.70599e-05 0
-0.00290787 -0.000150629 0
-0.00285237 -0.000356072 0
-0.00240694 -0.0006053 0
-0.00199207 -0.000495269 0
-0.00190031 -0.000346152 0
-0.00171409 -0.000235942 0
-0.0014614 -3.57708e-05 0
-0.00151129 0.000151003 0
-0.001793 -1.23005e-05 0
-0.00172564 -0.000296909 0
-0.00134881 -0.000395377 0
-0.00115151 -0.000547193 0
-0.00111842 -0.000897394 0
-0.000692482 -0.000895999 0
-0.000153169 -0.000625941 0
6.147e-05 -0.0004091 0
-0.000156762 0.000687229 0
-0.00116027 0.00233857 0
-0.00174602 0.00156278 0
-0.00130324 0.000627516 0
-0.00126385 0.000543005 0
-0.00200373 0.00126278 0
-0.00251104 0.00105844 0
-0.002788 0.000782002 0
-0.00328031 0.00033826 0
-0.0033204 -0.000326425 0
-0.00280742 -0.000753386 0
-0.00254973 -0.000903377 0
-0.00229483 -0.000859443 0
-0.00175634 -0.000660752 0
-0.0014589 -0.000373734 0
-0.00150792 -0.000119242 0
-0.0012684 0.000131951 0
-0.000994808 9.14971e-05 0
-0.00125911 -0.000204629 0
-0.00149451 -0.000764745 0
-0.00117029 -0.00068713 0
-0.000914321 -0.000891272 0
-0.000783739 -0.00127547 0
-0.00043567 -0.00116304 0
-4.05569e-05 -0.000304999 0
-0.000387741 0.0014975 0
-0.000958601 0.00294774 0
-0.00099172 0.00144229 0
-0.000755256 0.000176474 0
-0.000673426 0.000918501 0
-0.00110488 0.00194889 0
-0.00204464 0.00187378 0
-0.00321 0.00130881 0
-0.00367552 0.000492106 0
-0.00326639 -0.000650204 0
-0.00266275 -0.00119135 0
-0.00241896 -0.00119312 0
-0.00215015 -0.00125416 0
-0.00168701 -0.0010414 0
-0.00118702 -0.00069359 0
-0.000812425 -0.000363601 0
-0.000577508 -6.23064e-05 0
-0.000463097 4.65112e-05 0
-0.000442365 -5.44715e-05 0
-0.000756573 -0.000498353 0
-0.00102501 -0.000908407 0
-0.000743245 -0.00140022 0
-0.00044107 -0.00137976 0
-0.000533111 -0.00141841 0
-0.000248852 -0.000815919 0
-0.000106147 0.00224284 0
-0.000168297 0.00257218 0
-4.39806e-05 0.00151468 0
0 0 0
-0.000187689 0.00131875 0
-0.000858612 0.00253263 0
-0.00207474 0.00336717 0
-0.00302011 0.00210926 0
-0.00281082 0.000139816 0
-0.00263197 -0.000993319 0
-0.00268707 -0.00151708 0
-0.00222934 -0.00162756 0
-0.00168433 -0.00155222 0
-0.00158826 -0.00140914 0
-0.0012688 -0.00124478 0
-0.000651348 -0.000746969 0
-0.000151319 -0.000390433 0
0 0 0
0 0 0
0 0 0
-0.000481423 -0.000598232 0
-0.000790001 -0.0017597 0
-0.000297521 -0.00150221 0
-5.4862e-05 -0.00114311 0
-2.35556e-05 -0.00113196 0
0.000408056 0.00180646 0
0.000224113 0.00308105 0
-0.000149626 0.00144528 0
0 0 0
-0.000101523 0.00165788 0
-0.00103171 0.00379771 0
-0.00178984 0.00394929 0
-0.00169605 0.0023229 0
-0.00145447 -6.16071e-05 0
-0.00144312 -0.00108529 0
-0.00162436 -0.00151177 0
-0.0017808 -0.00180112 0
-0.00187762 -0.00169848 0
-0.00174817 -0.00180533 0
-0.00122679 -0.0016499 0
-0.000611324 -0.00129324 0
-0.000119521 -0.000820422 0
0 0 0
0 0 0
0 0 0
-4.7354e-05 -0.000406885 0
-0.000428511 -0.00132917 0
-0.000480597 -0.00229303 0
0.000125387 -0.00177813 0
0.000281528 -0.000880968 0
-0.000224956 0.00150961 0
-0.000348244 0.00372365 0
-7.98788e-05 0.00110073 0
0 0 0
-0.000113881 0.00197932 0
-0.000667695 0.00506405 0
-0.000737254 0.00355254 0
-0.000222504 0.00169131 0
0 0 0
-0.000434711 -0.000615162 0
-0.00121403 -0.0010151 0
-0.00194976 -0.00146297 0
-0.00212037 -0.0018042 0
-0.00152975 -0.00221003 0
-0.00120464 -0.00193252 0
-0.00134511 -0.00190312 0
-0.000648529 -0.00136014 0
0 0 0
0 0 0
0 0 0
8.78734e-05 -0.000239873 0
0.000187819 -0.000928525 0
-8.02557e-05 -0.00218687 0
-0.000452378 -0.00207264 0
-0.000213152 -0.000610699 0
-0.000282154 0.0022772 0
-5.89015e-05 0.00289019 0
0.0002522 0.00117214 0
0 0 0
-0.0008162 0.00282244 0
-0.00173409 0.00482294 0
-0.00147969 0.00362165 0
-0.00108367 0.00126811 0
-0.000988859 9.82578e-05 0
-0.00100081 -8.91316e-05 0
-0.00148193 -3.24287e-05 0
-0.00209393 -0.00113485 0
-0.00208332 -0.00203661 0
-0.00220257 -0.00228195 0
-0.00225765 -0.00217566 0
-0.00193273 -0.00221909 0
-0.0019769 -0.00146708 0
-0.0018374 -0.000781375 0
-0.000977856 -0.000265582 0
-0.000751059 -9.2936e-05 0
-0.00056243 -0.000397301 0
0.000115413 -0.00192948 0
0.000362418 -0.00147913 0
-0.000345064 -0.00155578 0
-0.000338467 -0.0016202 0
0.000306369 0.00225692 0
0.000628049 0.00226857 0
0.000294493 0.00172694 0
-0.00131796 0.00128868 0
-0.00210476 0.00372988 0
-0.00215966 0.00478763 0
-0.00260183 0.00382925 0
-0.00214541 0.000640451 0
-0.00114088 -0.000382418 0
-0.00151018 0.000378419 0
-0.00220664 0.000299444 0
-0.00164913 -0.00126656 0
-0.00151678 -0.00181584 0
-0.00260674 -0.00177511 0
-0.00321747 -0.00216637 0
-0.00298212 -0.00219498 0
-0.00320151 -0.0011205 0
-0.00369381 -0.00135778 0
-0.00289519 -0.000861873 0
-0.00164649 -0.00068361 0
-0.00104551 -0.000544977 0
-0.00113447 -0.00219707 0
-0.000498204 -0.00163633 0
0.000344457 -0.00124668 0
0.000321919 -0.0014856 0
0.00044253 0.00114196 0
0.000125977 0.0035273 0
-0.000907351 0.00246306 0
-0.00142514 0.0021708 0
-0.00257203 0.00449574 0
-0.00366512 0.00553635 0
-0.00181849 0.00204617 0
0 0 0
-0.000917173 0.000134157 0
-0.000927757 0.000381086 0
0 0 0
-0.00103841 -0.000716227 0
-0.00253182 -0.000932056 0
-0.00271192 -0.00140345 0
-0.0028203 -0.00166683 0
-0.00397178 -0.0016762 0
-0.00421003 -0.00152124 0
-0.00356943 -0.00113596 0
-0.00382928 -0.00134689 0
-0.00362545 -0.0022572 0
-0.00192929 -0.00150403 0
-0.0014621 -0.00176985 0
-0.00135963 -0.0030527 0
-0.000318328 -0.00279559 0
0.000321886 -0.000748844 0
-0.000642419 0.00140077 0
-0.000806507 0.00384909 0
-0.000636006 0.00335474 0
-0.00247765 0.00344012 0
-0.00372893 0.00505459 0
-0.00208707 0.00431 0
-0.000759442 0.000363259 0
-0.00185028 0.000361077 0
-0.00131585 -0.000187926 0
0 0 0
-0.000481714 0.000463786 0
-0.00161921 0.000583142 0
-0.00238047 -0.000221969 0
-0.00254521 -0.00122601 0
-0.00311235 -0.000913738 0
-0.00425177 -0.000912136 0
-0.00449095 -0.00171592 0
-0.00393613 -0.00123601 0
-0.00378609 -0.00143323 0
-0.00412643 -0.00246861 0
-0.00322431 -0.00272758 0
-0.00156288 -0.00258125 0
-0.00108528 -0.00258444 0
-0.00191322 -0.00309485 0
-0.000934369 -0.00145406 0
-0.000250956 0.00277782 0
-0.000345792 0.00249216 0
-0.000884537 0.00448857 0
-0.00286652 0.0061653 0
-0.00339693 0.00447343 0
-0.00312365 0.00274127 0
-0.00474023 0.00209223 0
-0.00485621 -1.58366e-05 0
-0.00323176 -0.00163022 0
-0.00301042 -0.000431149 0
-0.00314388 0.00131136 0
-0.00269666 0.000980711 0
-0.00200084 -0.000199417 0
-0.00284825 -0.000365791 0
-0.00368692 -0.000363454 0
-0.00309706 -0.000850148 0
-0.00363114 -0.000796363 0
-0.00514502 -0.00170857 0
-0.00417752 -0.00233896 0
-0.00332525 -0.00190726 0
-0.00402273 -0.00352705 0
-0.00344928 -0.00517491 0
-0.0011317 -0.00261459 0
-0.000575452 -0.00257625 0
-0.000193708 -0.00347749 0
0.000510606 0.00239681 0
-0.000566019 0.00400183 0
-0.00249811 0.00594667 0
-0.00244638 0.00626515 0
-0.00224331 0.00487665 0
-0.00367969 0.00413021 0
-0.00427749 0.00286577 0
-0.00469797 -0.000413059 0
-0.00481149 -0.00222168 0
-0.00414887 -0.00100212 0
-0.00364423 0.000950296 0
-0.00287748 5.64785e-06 0
-0.00234932 -0.00049971 0
-0.00240521 0.00018044 0
-0.00251569 -0.000184646 0
-0.00271157 -0.000718275 0
-0.00350776 0.000318629 0
-0.00451736 -0.0014295 0
-0.00448887 -0.00238726 0
-0.00358019 -0.00305899 0
-0.00275318 -0.00303057 0
-0.00390177 -0.00498943 0
-0.00285883 -0.00520832 0
-0.000259223 -0.0041274 0
0.000880238 -0.00248963 0
-3.946e-05 0.0016719 0
-0.00138393 0.00710382 0
-0.00220335 0.00634265 0
-0.00163716 0.00471131 0
-0.00218552 0.00633528 0
-0.00334244 0.00584603 0
-0.00177175 0.000877456 0
0 0 0
-0.00173981 -0.00123633 0
-0.00283427 -0.0011534 0
-0.00132215 -0.000342792 0
-0.000911056 -0.000351076 0
-0.00160086 5.16219e-05 0
-0.00119661 -0.000261637 0
-0.00104645 3.16294e-05 0
-0.00279472 0.000625519 0
-0.0027559 5.08593e-05 0
-0.00145025 -0.00107614 0
-0.00358911 -0.000793868 0
-0.00590901 -0.00504343 0
-0.00361683 -0.00355292 0
-0.00282226 -0.00377029 0
-0.00332334 -0.00682898 0
-0.0029847 -0.00720177 0
-0.000439635 -0.00220537 0
-0.0015805 0.00404527 0
-0.00171319 0.00585166 0
-9.52894e-05 0.00608615 0
-0.00191592 0.00681673 0
-0.00263651 0.00581624 0
-0.000212842 0.00361074 0
0.00064962 0.000470051 0
0 0 0
0.00026281 -0.000369605 0
8.52413e-05 -0.00102999 0
-0.000183729 -0.00122299 0
0 0 0
-0.000184985 0.000220434 0
-0.000776168 -6.60034e-05 0
-0.00126491 0.000505705 0
-0.00117041 0.00108526 0
-0.000788463 -0.000699623 0
-0.00111108 -7.12462e-05 0
-0.00146617 0.000329014 0
-0.00333486 -0.00277091 0
-0.0047506 -0.0045107 0
-0.00369941 -0.00653875 0
-0.00175263 -0.00483706 0
-0.00398809 -0.00669279 0
-0.00198568 -0.00613295 0
0.000732493 0.00539997 0
0.000590389 0.00432632 0
-0.00182339 0.00751388 0
-0.00405052 0.00906264 0
-0.00297635 0.00416085 0
-0.00105349 0.00125964 0
-0.000241523 0.0012602 0
0 0 0
-0.000237874 -0.000409798 0
-0.000437366 -0.000919842 0
-0.0010338 -0.000582487 0
-0.000731128 -0.000281973 0
0.000209657 -0.000201309 0
-0.000281285 0.00106883 0
-0.000591668 0.000874889 0
0.000465462 -0.000124591 0
0.000157121 -0.000414078 0
-0.000651726 0.000302357 0
0 0 0
-0.000372061 0.000313237 0
-0.00333795 -0.00288194 0
-0.00674304 -0.00875408 0
-0.00335607 -0.00571441 0
-0.000386016 -0.00705526 0
0.0012779 -0.0080174 0
0.000871249 0.00292471 0
-0.0022506 0.00996529 0
-0.00596348 0.00983184 0
-0.00384504 0.00599246 0
-0.00214356 0.00378002 0
-0.00263969 0.0012584 0
-0.00128874 -0.00112372 0
0 0 0
-0.000535311 0.000540501 0
-0.000905636 -0.0010285 0
-0.00109101 -0.000390342 0
-0.00167114 -0.000667617 0
-0.00190597 -0.000337552 0
-0.000401492 3.54186e-05 0
0.000809408 0.000388767 0
0.00033791 0.000323864 0
2.37153e-05 0.000116308 0
3.41428e-05 -3.0208e-05 0
0 0 0
-0.000199778 0.000628697 0
0.000140285 -0.000148233 0
-0.00348702 -0.00416146 0
-0.00594471 -0.00972228 0
-0.00363576 -0.01323 0
0.00101872 -0.00538142 0
-0.00197896 0.00447433 0
-0.00471247 0.0138107 0
-0.00389452 0.00920712 0
-0.00504241 0.00574389 0
-0.00925643 0.00468113 0
-0.00912243 0.000146246 0
-0.00363232 -0.00499549 0
0 0 0
-0.00157493 0.00186468 0
-0.00308732 -8.03246e-06 0
-0.00190376 -0.00140341 0
-0.00080719 -0.000102421 0
-0.00128098 -0.000124768 0
-0.00118856 -0.00136088 0
-0.000431896 -0.000933838 0
2.15015e-05 0.00146241 0
0 0 0
0 0 0
0 0 0
-0.000352259 6.40481e-05 0
0.00100196 0.000185268 0
7.45105e-05 -0.000213487 0
-0.00576202 -0.00591195 0
-0.0103956 -0.016673 0
-0.00338168 -0.00952781 0
-0.00255561 0.0111573 0
-0.00232914 0.00891784 0
-0.0014455 0.0102783 0
-0.00794184 0.0137043 0
-0.00846568 0.00309897 0
-0.00528129 -0.00247066 0
-0.00836404 -0.0062431 0
-0.00867033 -0.00249033 0
-0.00253488 -0.000599846 0
-0.00112546 0.00185504 0
-0.00382652 -0.00228677 0
-0.0032347 -0.000785824 0
-0.000759869 -0.00179446 0
-0.000260829 0.000117605 0
-0.00169512 -0.00113068 0
-0.00103262 9.447e-05 0
0 0 0
0 0 0
0 0 0
0 0 0
0 0 0
0 0 0
0 0 0
-0.00450325 -0.0109785 0
-0.00397826 -0.0210606 0
0.00363413 0.00956345 0
-0.000983355 0.0132699 0
-0.0107672 0.0149916 0
-0.0103939 0.0138299 0
-0.00513313 0.000844151 0
-0.00370926 -0.00166717 0
-0.00791241 -0.00209163 0
-0.010276 -0.00515755 0
-0.00716162 -0.0040855 0
-0.00400075 0.00129274 0
-0.00255635 -0.00123892 0
-0.00196124 -0.00220358 0
-0.000268432 -0.00441663 0
0.00187948 0.000165236 0
0.00130617 0.000902406 0
-0.000136519 -0.00135901 0
0 0 0
0 0 0
0 0 0
0 0 0
-0.00443674 0.00339636 0
-0.0107741 0.00020045 0
-0.0083524 -0.00182865 0
0.00348677 -0.0165587 0
0.00703776 -0.0173917 0
-0.00269839 0.00770323 0
-0.0133361 0.0293885 0
-0.0103106 0.0120827 0
0.000180509 0.0054027 0
0 0 0
-0.00170315 0.00036674 0
-0.00127525 0.000300055 0
-0.00276708 -0.00408049 0
-0.00561218 -0.00549983 0
-0.0027059 -0.00507326 0
0 0 0
0.000268497 -0.00456861 0
-0.00163478 -0.00260807 0
-0.00212534 -0.00396947 0
0.00205945 0.000964819 0
-0.000475861 0.00258517 0
-0.004258 -4.31792e-06 0
-0.00196152 -0.00202783 0
-8.74086e-05 0.00126355 0
-0.00703133 0.0055396 0
-0.00810567 0.00595769 0
-0.00416522 0.00186252 0
-0.00577255 -0.00459723 0
-0.00713512 -0.0313921 0
-0.00214011 -0.0101054 0
-0.00631278 0.0211386 0
-0.00709091 0.0230554 0
0.00593263 0.00237959 0
0.0161497 -1.75028e-05 0
0.0156555 0.00402983 0
0.0120444 -0.000603571 0
0.0157462 -0.000974621 0
0.0167671 -0.00102298 0
0.0102291 -0.00159154 0
0.00570479 -0.00658051 0
0.0108571 -0.00379637 0
0.00791994 0.000741339 0
0 0 0
0.00227488 -0.00668525 0
0.00485251 -0.000108413 0
0.00209754 0.00718219 0
0 0 0
0.00323066 -0.00573692 0
0.00555598 0.00272852 0
0.00334223 0.00924041 0
0.00639102 0.000495649 0
0.0118548 0.00109917 0
0.00730764 0.000392278 0
-0.00616865 -0.0222492 0
-0.00592 -0.0224526 0
0.0234878 0.0152661 0
0.0515416 0.00362931 0
0.0541469 -0.00192865 0
0.0489155 -0.00170636 0
0.0523537 0.00382784 0
0.0560172 -0.00135638 0
0.0525497 -0.00111433 0
0.0511743 6.46571e-05 0
0.0532243 0.00114901 0
0.0520638 -0.00201018 0
0.0435146 -0.00380088 0
0.0438488 0.00384219 0
0.0495093 -0.000297005 0
0.0440775 -0.00360033 0
0.0384922 -0.000260362 0
0.0440616 0.00385537 0
0.0497546 -0.000150404 0
0.0438448 -0.00382724 0
0.040269 0.00157898 0
0.0486909 0.00401539 0
0.0521961 -0.00201592 0
0.047972 -0.000603023 0
0.0525612 0.00359134 0
0.0523707 -0.00372791 0
0.0241307 -0.0156677 0


