# vtk DataFile Version 4.0
SiwiRVisFile
ASCII
DATASET STRUCTURED_POINTS
DIMENSIONS 50 50 1
ORIGIN 0 0 0
SPACING 1 1 1
POINT_DATA 2500


SCALARS flags double 1
LOOKUP_TABLE default
1
1
1
1
1
1
1
1
1
1
1
1
1
1
1
1
1
1
1
1
1
1
1
1
1
1
1
1
1
1
1
1
1
1
1
1
1
1
1
1
1
1
1
1
1
1
1
1
1
1
1
1
1
1
1
1
1
1
1
1
1
1
1
1
1
1
1
1
1
1
1
1
1
1
1
1
1
1
1
1
1
1
1
1
1
1
1
1
1
1
1
1
1
1
1
1
1
1
1
1
1
1
1
1
1
1
1
1
1
1
1
1
1
1
1
1
1
1
1
1
1
1
1
1
1
1
1
1
1
1
1
1
1
1
1
1
1
1
1
1
1
1
1
1
1
1
1
1
1
1
1
1
1
1
1
1
1
1
1
1
1
1
1
1
1
1
1
1
1
1
1
1
1
1
1
1
1
1
1
1
1
1
1
1
1
1
1
1
1
1
1
1
1
1
1
1
1
1
1
1
1
1
1
1
1
1
1
1
1
1
1
1
1
1
1
1
1
1
1
1
1
1
1
1
1
1
1
1
1
1
1
1
1
1
1
1
1
1
1
1
1
1
1
1
1
1
1
1
1
1
1
1
1
1
1
1
1
1
1
1
1
1
1
1
1
1
1
1
1
1
1
1
1
1
1
1
1
1
1
1
1
1
1
1
1
1
1
1
1
1
1
1
1
1
1
1
1
1
1
1
1
1
1
1
1
1
1
1
1
1
1
1
1
1
1
1
1
1
1
1
1
1
1
1
1
1
1
1
1
1
1
1
1
1
1
1
1
1
1
1
1
1
1
1
1
1
1
1
1
1
1
1
1
1
1
1
1
1
1
1
1
1
1
1
1
1
1
1
1
1
1
1
1
1
1
1
1
1
1
1
1
1
1
1
1
1
1
1
1
1
1
1
1
1
1
1
1
1
1
1
1
1
1
1
1
1
1
1
1
1
1
1
1
1
1
1
1
1
1
1
1
1
1
1
1
1
1
1
1
1
1
1
1
1
1
1
1
1
1
1
1
1
1
1
1
1
1
1
1
1
1
1
1
1
1
1
1
1
1
1
1
1
1
1
1
1
1
1
1
1
1
1
1
1
1
1
1
1
1
1
1
1
1
1
1
1
1
1
1
1
1
1
1
1
1
1
1
1
1
1
1
1
1
1
1
1
1
1
1
1
1
1
1
1
1
1
1
1
1
1
1
1
1
1
1
1
1
1
1
1
1
1
1
1
1
1
1
1
1
1
1
1
1
1
1
1
1
1
1
1
1
1
1
1
1
1
1
1
1
1
1
1
1
1
1
1
1
1
1
1
1
1
1
1
1
1
1
1
1
1
1
1
1
1
1
1
1
1
1
1
1
1
1
1
1
1
1
1
1
1
1
1
1
1
1
1
1
1
1
1
1
1
1
1
1
1
1
1
1
1
1
1
1
1
1
1
1
1
1
1
1
1
1
1
1
1
1
1
1
1
1
1
1
1
1
1
1
1
1
1
1
1
1
1
1
1
1
1
1
1
1
1
1
1
1
1
1
1
1
1
1
1
1
1
1
1
1
1
1
1
1
1
1
1
1
1
1
1
1
1
1
1
1
1
1
1
1
1
1
1
1
1
1
1
1
1
1
1
1
1
1
1
1
1
1
1
1
1
1
1
1
1
1
1
1
1
1
1
1
1
1
1
1
1
1
1
1
1
1
1
1
1
1
1
1
1
1
1
1
1
1
1
1
1
1
1
1
1
1
1
1
1
1
1
1
1
1
1
1
1
1
1
1
1
1
1
1
1
1
1
1
1
1
1
1
1
1
1
1
1
1
1
1
1
1
1
1
1
1
1
1
1
1
1
1
1
1
1
1
1
1
1
1
1
1
1
1
1
1
1
1
1
1
1
1
1
1
1
1
1
1
1
1
1
1
1
1
1
1
1
1
1
1
1
1
1
1
1
1
1
1
1
1
1
1
1
1
1
1
1
1
1
1
1
1
1
1
1
1
1
1
1
1
1
1
1
1
1
1
1
1
1
1
1
1
1
1
1
1
1
1
1
1
1
1
1
1
1
1
1
1
1
1
1
1
1
1
1
1
1
1
1
1
1
1
1
1
1
1
1
1
1
1
1
1
1
1
1
1
1
1
1
1
1
1
1
1
1
1
1
1
1
1
1
1
1
1
1
1
1
1
1
1
1
1
1
1
1
1
1
1
1
1
1
1
1
1
1
1
1
1
1
1
1
1
1
1
1
1
1
1
1
1
1
1
1
1
1
1
1
1
1
1
1
1
1
1
1
1
1
1
1
1
1
1
1
1
1
1
1
1
1
1
1
1
1
1
1
1
1
1
1
1
1
1
1
1
1
1
1
1
1
1
1
1
1
1
1
1
1
1
1
1
1
1
1
1
1
1
1
1
1
1
1
1
1
1
1
1
1
1
1
1
1
1
1
1
1
1
1
1
1
1
1
1
1
1
1
1
1
1
1
1
1
1
1
1
1
1
1
1
1
1
1
1
1
1
1
1
1
1
1
1
1
1
1
1
1
1
1
1
1
1
1
1
1
1
1
1
1
1
1
1
1
1
1
1
1
1
1
1
1
1
1
1
1
1
1
1
1
1
1
1
1
1
1
1
1
1
1
1
1
1
1
1
1
1
1
1
1
1
1
1
1
1
1
1
1
1
1
1
1
1
1
1
1
1
1
1
1
1
1
1
1
1
1
1
1
1
1
1
1
1
1
1
1
1
1
1
1
1
1
1
1
1
1
1
1
1
1
1
1
1
1
1
1
1
1
1
1
1
1
1
1
1
1
1
1
1
1
1
1
1
1
1
1
1
1
1
1
1
1
1
1
1
1
1
1
1
1
1
1
1
1
1
1
1
1
1
1
1
1
1
1
1
1
1
1
1
1
1
1
1
1
1
1
1
1
1
1
1
1
1
1
1
1
1
1
1
1
1
1
1
1
1
1
1
1
1
1
1
1
1
1
1
1
1
1
1
1
1
1
1
1
1
1
1
1
1
1
1
1
1
1
1
1
1
1
1
1
1
1
1
1
1
1
1
1
1
1
1
1
1
1
1
1
1
1
1
1
1
1
1
1
1
1
1
1
1
1
1
1
1
1
1
1
1
1
1
1
1
1
1
1
1
1
1
1
1
1
1
1
1
1
1
1
1
1
1
1
1
1
1
1
1
1
1
1
1
1
1
1
1
1
1
1
1
1
1
1
1
1
1
1
1
1
1
1
1
1
1
1
1
1
1
1
1
1
1
1
1
1
1
1
1
1
1
1
1
1
1
1
1
1
1
1
1
1
1
1
1
1
1
1
1
1
1
1
1
1
1
1
1
1
1
1
1
1
1
1
1
1
1
1
1
1
1
1
1
1
1
1
1
1
1
1
1
1
1
1
1
1
1
1
1
1
1
1
1
1
1
1
1
1
1
1
1
1
1
1
1
1
1
1
1
1
1
1
1
1
1
1
1
1
1
1
1
1
1
1
1
1
1
1
1
1
1
1
1
1
1
1
1
1
1
1
1
1
1
1
1
1
1
1
1
1
1
1
1
1
1
1
1
1
1
1
1
1
1
1
1
1
1
1
1
1
1
1
1
1
1
1
1
1
1
1
1
1
1
1
1
1
1
1
1
1
1
1
1
1
1
1
1
1
1
1
1
1
1
1
1
1
1
1
1
1
1
1
1
1
1
1
1
1
1
1
1
1
1
1
1
1
1
1
1
1
1
1
1
1
1
1
1
1
1
1
1
1
1
1
1
1
1
1
1
1
1
1
1
1
1
1
1
1
1
1
1
1
1
1
1
1
1
1
1
1
1
1
1
1
1
1
1
1
1
1
1
1
1
1
1
1
1
1
1
1
1
1
1
1
1
1
1
1
1
1
1
1
1
1
1
1
1
1
1
1
1
1
1
1
1
1
1
1
1
1
1
1
1
1
1
1
1
1
1
1
1
1
1
1
1
1
1
1
1
1
1
1
1
1
1
1
1
1
1
1
1
1
1
1
1
1
1
1
1
1
1
1
1
1
1
1
1
1
1
1
1
1
1
1
1
1
1
1
1
1
1
1
1
1
1
1
1
1
1
1
1
1
1
1
1
1
1
1
1
1
1
1
1
1
1
1
1
1
1
1
1
1
1
1
1
1
1
1
1
1
1
1
1
1
1
1
1
1
1
1
1
1
1
1
1
1
1
1
1
1
1
1
1
1
1
1
1
1
1
1
1
1
1
1
1
1
1
1
1
1
1
1
1
1
1
1
1
1
1
1
1
1
1
1
1
1
1
1
1
1
1
1
1
1
1
1
1
1
1
1
1
1
1
1
1
1
1
1
1
1
1
1
1
1
1
1
1
1
1
1
1
1
1
1
1
1
1
1
1
1
1
1
1
1
1
1
1
1
1
1
1
1
1
1
1
1
1
1
1
1
1
1
1
1
1
1
1
1
1
1
1
1
1
1
1
1
1
1
1
1
1
1
1
1
1
1
1
1
1
1
1
1
1
1
1
1
1
1
1
1
1
1
1
1
1
1
1
1
1
1
1
1
1
1
1
1
1
1
1
1
1
1
1
1
1
1
1
1
1
1
1
1
1
1
1
1
1
1
1
1
1
1
1
1
1
1
1
1
1
1
1
1
1
1
1
1
1
1
1
1
1
1
1
1
1
1
1
1
1
1
1
1
1
1
1
1
1
1
1
1
1
1
1
1
1
1
1
1
1
1
1
1
1
1
1
1
1
1
1
1
1
1
1
1
1
1
1
1
1
1
1
1
1
1
1
1
1
1
1
1
1
1
1
1
1
1
1
1
1
1
1
1
1
1
1
1
1
1
1
1
1
1
1
1
1
1
1
1
1
1
1
1
1
1
1
1
1
1
1
1
1
1
1
1
1
1
1
1
1
1
1
1
1
1
1
1
1
1
1
1
1
1
1
1
1
1
1
1
1
1
1
1
1
1
1
1
1
1
1
1
1
1
1
1
1
1
1
1
1
1
1
1
1
1
1
1
1
1
1
1
1
1
1
1
1
1
1
1
1
1
1
1
1
1
1
1
1
1
1
1
1
1
1
1
1
1
1
1
1
1
1
1
1
1
1
1
1
1
1
1
1
1
1
1
1
1
1
1
1
1
1
1
1
1
1
1
1
1
1
1
1
1
1
1
1
1
1
1
1
1
1
1
1
1
1
1
1
1
1
1
1
1
1
1
1
1
1
1
1
1
1
1
1
1
1
1
1
1
1
1
1
1
1
1
1
1
1
1
1
1
1
1
1
1
1
1
1
1
1
1
1
1
1
1
1
1
1
1
1
1
1
1
1
1
1
1
1
1
1
1
1
1
1
1
1
1
1
1
1
1
1
1
1
1
1
1
1
1
1
1
1
1
1
1
1
1
1
1
1
1
1
1
1
1
1
1
1
1
1
1
1
1
1
1
1
1
1
1
1
1
1
1
1
1
1
1
1
1
1
1
1
1
1
1
1
1
1
1
1
1
1
1
1
1
1
1
1
1
1
1
1
1
1
1
1
1
1
1
1
1
1
1
1
1
1
1
1
1
1
1
1
1
1
1
1
1
1
1
1
1
1
1
1
1
1
1
1
1
1
1
1
1
1
1
1
1
1
1
1
1
1
1
1
1
1
1
1
1
1
1
1
1
1
1
1
1
1
1
1
1
1
1
1
1

SCALARS density double 1
LOOKUP_TABLE default
0.99997
0.99997
0.99997
0.99997
0.99997
0.99997
0.99997
0.99997
0.99997
0.99997
0.99997
0.99997
0.99997
0.99997
0.99997
0.99997
0.99997
0.99997
0.99997
0.99997
0.99997
0.99997
0.99997
0.99997
0.99997
0.99997
0.99997
0.99997
0.99997
0.99997
0.99997
0.99997
0.99997
0.99997
0.99997
0.99997
0.99997
0.99997
0.99997
0.99997
0.99997
0.99997
0.99997
0.99997
0.99997
0.99997
0.99997
0.99997
0.99997
0.99997
0.99997
0.99997
0.99997
0.99997
0.99997
0.99997
0.99997
0.99997
0.99997
0.99997
0.99997
0.99997
0.99997
0.99997
0.99997
0.99997
0.99997
0.99997
0.99997
0.99997
0.99997
0.99997
0.99997
0.99997
0.99997
0.99997
0.99997
0.99997
0.99997
0.99997
0.99997
0.99997
0.99997
0.99997
0.99997
0.99997
0.99997
0.99997
0.99997
0.99997
0.99997
0.99997
0.99997
0.99997
0.99997
0.99997
0.99997
0.99997
0.99997
0.99997
0.99997
0.99997
0.99997
0.99997
0.99997
0.99997
0.99997
0.99997
0.99997
0.99997
0.99997
0.99997
0.99997
0.99997
0.99997
0.99997
0.99997
0.99997
0.99997
0.99997
0.99997
0.99997
0.99997
0.99997
0.99997
0.99997
0.99997
0.99997
0.99997
0.99997
0.99997
0.99997
0.99997
0.99997
0.99997
0.99997
0.99997
0.99997
0.99997
0.99997
0.99997
0.99997
0.99997
0.99997
0.99997
0.99997
0.99997
0.99997
0.99997
0.99997
0.99997
0.99997
0.99997
0.99997
0.99997
0.99997
0.99997
0.99997
0.99997
0.99997
0.99997
0.99997
0.99997
0.99997
0.99997
0.99997
0.99997
0.99997
0.99997
0.99997
0.99997
0.99997
0.99997
0.99997
0.99997
0.99997
0.99997
0.99997
0.99997
0.99997
0.99997
0.99997
0.99997
0.99997
0.99997
0.99997
0.99997
0.99997
0.99997
0.99997
0.99997
0.99997
0.99997
0.99997
0.99997
0.99997
0.99997
0.99997
0.99997
0.99997
0.99997
0.99997
0.99997
0.99997
0.99997
0.99997
0.99997
0.99997
0.99997
0.99997
0.99997
0.99997
0.99997
0.99997
0.99997
0.99997
0.99997
0.99997
0.99997
0.99997
0.99997
0.99997
0.99997
0.99997
0.99997
0.99997
0.99997
0.99997
0.99997
0.99997
0.99997
0.99997
0.99997
0.99997
0.99997
0.99997
0.99997
0.99997
0.99997
0.99997
0.99997
0.99997
0.99997
0.99997
0.99997
0.99997
0.99997
0.99997
0.99997
0.99997
0.99997
0.99997
0.99997
0.99997
0.99997
0.99997
0.99997
0.99997
0.99997
0.99997
0.99997
0.99997
0.99997
0.99997
0.99997
0.99997
0.99997
0.99997
0.99997
0.99997
0.99997
0.99997
0.99997
0.99997
0.99997
0.99997
0.99997
0.99997
0.99997
0.99997
0.99997
0.99997
0.99997
0.99997
0.99997
0.99997
0.99997
0.99997
0.99997
0.99997
0.99997
0.99997
0.99997
0.99997
0.99997
0.99997
0.99997
0.99997
0.99997
0.99997
0.99997
0.99997
0.99997
0.99997
0.99997
0.99997
0.99997
0.99997
0.99997
0.99997
0.99997
0.99997
0.99997
0.99997
0.99997
0.99997
0.99997
0.99997
0.99997
0.99997
0.99997
0.99997
0.99997
0.99997
0.99997
0.99997
0.99997
0.99997
0.99997
0.99997
0.99997
0.99997
0.99997
0.99997
0.99997
0.99997
0.99997
0.99997
0.99997
0.99997
0.99997
0.99997
0.99997
0.99997
0.99997
0.99997
0.99997
0.99997
0.99997
0.99997
0.99997
0.99997
0.99997
0.99997
0.99997
0.99997
0.99997
0.99997
0.99997
0.99997
0.99997
0.99997
0.99997
0.99997
0.99997
0.99997
0.99997
0.99997
0.99997
0.99997
0.99997
0.99997
0.99997
0.99997
0.99997
0.99997
0.99997
0.99997
0.99997
0.99997
0.99997
0.99997
0.99997
0.99997
0.99997
0.99997
0.99997
0.99997
0.99997
0.99997
0.99997
0.99997
0.99997
0.99997
0.99997
0.99997
0.99997
0.99997
0.99997
0.99997
0.99997
0.99997
0.99997
0.99997
0.99997
0.99997
0.99997
0.99997
0.99997
0.99997
0.99997
0.99997
0.99997
0.99997
0.99997
0.99997
0.99997
0.99997
0.99997
0.99997
0.99997
0.99997
0.99997
0.99997
0.99997
0.99997
0.99997
0.99997
0.99997
0.99997
0.99997
0.99997
0.99997
0.99997
0.99997
0.99997
0.99997
0.99997
0.99997
0.99997
0.99997
0.99997
0.99997
0.99997
0.99997
0.99997
0.99997
0.99997
0.99997
0.99997
0.99997
0.99997
0.99997
0.99997
0.99997
0.99997
0.99997
0.99997
0.99997
0.99997
0.99997
0.99997
0.99997
0.99997
0.99997
0.99997
0.99997
0.99997
0.99997
0.99997
0.99997
0.99997
0.99997
0.99997
0.99997
0.99997
0.99997
0.99997
0.99997
0.99997
0.99997
0.99997
0.99997
0.99997
0.99997
0.99997
0.99997
0.99997
0.99997
0.99997
0.99997
0.99997
0.99997
0.99997
0.99997
0.99997
0.99997
0.99997
0.99997
0.99997
0.99997
0.99997
0.99997
0.99997
0.99997
0.99997
0.99997
0.99997
0.99997
0.99997
0.99997
0.99997
0.99997
0.99997
0.99997
0.99997
0.99997
0.99997
0.99997
0.99997
0.99997
0.99997
0.99997
0.99997
0.99997
0.99997
0.99997
0.99997
0.99997
0.99997
0.99997
0.99997
0.99997
0.99997
0.99997
0.99997
0.99997
0.99997
0.99997
0.99997
0.99997
0.99997
0.99997
0.99997
0.99997
0.99997
0.99997
0.99997
0.99997
0.99997
0.999971
0.99997
0.99997
0.99997
0.99997
0.99997
0.99997
0.99997
0.99997
0.99997
0.99997
0.99997
0.99997
0.99997
0.99997
0.99997
0.99997
0.99997
0.99997
0.99997
0.99997
0.99997
0.99997
0.99997
0.99997
0.99997
0.99997
0.99997
0.99997
0.99997
0.99997
0.99997
0.99997
0.99997
0.99997
0.99997
0.99997
0.99997
0.99997
0.99997
0.99997
0.99997
0.99997
0.99997
0.99997
0.99997
0.99997
0.99997
0.99997
0.99997
0.99997
0.999968
0.99997
0.99997
0.99997
0.99997
0.99997
0.99997
0.99997
0.99997
0.99997
0.99997
0.99997
0.99997
0.99997
0.99997
0.99997
0.99997
0.99997
0.999969
0.999969
0.999969
0.99997
0.99997
0.99997
0.99997
0.99997
0.999971
0.999971
0.999971
0.999971
0.99997
0.99997
0.99997
0.99997
0.99997
0.999969
0.999969
0.999969
0.999969
0.999969
0.999969
0.999969
0.999969
0.99997
0.99997
0.99997
0.99997
0.999971
0.999969
0.99997
0.999973
0.99997
0.999969
0.999969
0.999969
0.999969
0.999969
0.999969
0.999969
0.99997
0.99997
0.99997
0.99997
0.99997
0.99997
0.99997
0.99997
0.999971
0.999971
0.99997
0.999971
0.999972
0.99997
0.999969
0.999971
0.99997
0.999968
0.999968
0.999969
0.999969
0.999969
0.999969
0.999969
0.999969
0.999969
0.999969
0.999969
0.99997
0.99997
0.99997
0.99997
0.99997
0.99997
0.99997
0.99997
0.99997
0.99997
0.999972
0.99997
0.999968
0.99997
0.999969
0.99997
0.99997
0.99997
0.99997
0.99997
0.99997
0.99997
0.99997
0.999969
0.999969
0.999969
0.999969
0.999969
0.99997
0.999971
0.99997
0.999973
0.999975
0.999971
0.999971
0.999973
0.999972
0.999967
0.999966
0.999969
0.999968
0.999965
0.999967
0.99997
0.999969
0.99997
0.999972
0.999972
0.999972
0.999972
0.999972
0.999972
0.999972
0.999971
0.999971
0.999971
0.999971
0.999971
0.99997
0.999971
0.999965
0.999972
0.999972
0.999968
0.999972
0.99997
0.99997
0.999971
0.999971
0.999971
0.999971
0.999971
0.999971
0.999971
0.99997
0.999969
0.99997
0.999967
0.999969
0.999975
0.999966
0.999963
0.99998
0.999972
0.999954
0.999974
0.999983
0.999957
0.999966
0.999986
0.999968
0.99996
0.999978
0.999975
0.999966
0.999972
0.999973
0.99997
0.999971
0.99997
0.999969
0.999969
0.999968
0.999968
0.999968
0.999968
0.999968
0.999968
0.999969
0.99997
0.999966
0.999971
0.99997
0.999967
0.999971
0.99997
0.999969
0.999969
0.999969
0.999969
0.99997
0.99997
0.99997
0.999972
0.999973
0.999967
0.999976
0.999981
0.999958
0.999965
0.999997
0.999964
0.999934
0.999978
0.999991
0.999946
0.999947
0.999995
0.999994
0.999949
0.999964
1.00001
0.999974
0.999943
0.999974
0.99998
0.999957
0.999962
0.99997
0.999965
0.999966
0.999968
0.999968
0.999969
0.99997
0.99997
0.999971
0.999971
0.999971
0.999967
0.999983
0.999968
0.999967
0.999978
0.999968
0.999971
0.99997
0.99997
0.999971
0.99997
0.999969
0.999972
0.999968
0.999964
0.999983
0.999969
0.999944
0.999996
1
0.999922
0.99996
1.00003
0.999941
0.999924
1.00003
0.999965
0.99992
1.00002
0.999976
0.999915
1.00001
0.999997
0.999909
0.999978
1.00001
0.999935
0.999946
0.999996
0.999972
0.99996
0.999978
0.999975
0.999972
0.999975
0.999973
0.999972
0.999972
0.999972
0.999969
0.999967
0.999969
0.999966
0.999962
0.999966
0.999969
0.999972
0.999974
0.999971
0.999972
0.999975
0.999965
0.999972
0.999987
0.999942
0.999951
1.00003
0.999954
0.999874
1.00002
1.00005
0.99986
0.999926
1.0001
0.999962
0.999853
1.00004
1.00007
0.999866
0.999901
1.00008
0.999976
0.999843
1.00001
1.00008
0.999899
0.999923
1.00006
0.999986
0.999917
0.99999
0.999997
0.999953
0.999967
0.999972
0.999962
0.999965
0.999965
0.999966
0.999964
0.999977
0.999961
0.999984
0.999955
0.99996
0.999968
0.999962
0.999967
0.999966
0.999957
0.999979
0.999972
0.999925
1
1.00003
0.999872
0.999926
1.00012
0.999943
0.999811
1.00006
1.00006
0.999829
0.999967
1.00009
0.99991
0.999947
1.00004
0.99991
0.999985
1.00003
0.999861
0.999972
1.0001
0.999885
0.999888
1.00012
0.99999
0.999826
1.00001
1.00006
0.999909
0.999936
1.00001
0.999966
0.99996
0.999981
0.999974
0.999971
0.99998
0.999979
0.999977
0.999992
0.999931
0.999948
0.99996
0.999959
0.99996
0.999984
0.999945
0.999944
1.00005
0.999948
0.999834
1.00007
1.00011
0.999788
0.999921
1.0002
0.99993
0.999785
1.00012
1.00011
0.999755
0.999919
1.00023
0.999872
0.999743
1.00019
1.00007
0.999717
1.00002
1.00017
0.999837
0.999827
1.00014
1
0.999759
1.00002
1.00014
0.999845
0.999879
1.0001
0.999994
0.999903
1
0.999997
0.999961
0.999978
0.999985
0.999971
1
0.999996
0.999919
0.999912
0.999952
0.999964
0.999936
1
1.00004
0.999857
0.999942
1.00019
0.999915
0.999744
1.00014
1.00012
0.999752
0.999953
1.00018
0.999908
0.999832
1.00006
1.00006
0.999889
0.999881
1.00002
1.00003
0.999899
0.999929
1.00006
1.00003
0.999887
0.999899
1.00009
1.00002
0.999787
0.99999
1.00016
0.999835
0.999827
1.00017
1.00001
0.999766
0.999994
1.00007
0.9999
0.999937
1
0.999973
0.999984
1.00003
1.00001
0.999898
0.999849
0.999883
0.99997
0.999925
0.999818
1.0001
1.0001
0.99971
0.999933
1.00025
0.999871
0.999764
1.00015
1.00003
0.999753
0.999965
1.00014
0.999874
0.999834
1.00013
1.00005
0.999718
1.00003
1.00021
0.999741
0.999896
1.00021
0.999896
0.999824
1.00009
1.00005
0.999817
0.999978
1.00015
0.999911
0.999813
1.00014
1.00004
0.999714
1
1.00019
0.999849
0.999849
1.0001
1.00001
0.999971
1.00006
1.00007
1.00005
0.99979
0.999858
0.999701
0.999802
1.00006
0.999773
0.999672
1.00017
1.00008
0.999683
0.99997
1.00017
0.999833
0.999859
1.0001
1.00001
0.999851
0.999947
1.00004
1.00002
0.999888
0.999908
1.00021
0.99993
0.999719
1.00023
1
0.999727
1.00004
1.00004
0.999903
0.999902
0.999997
1.00007
0.999916
0.99986
1.00007
1.00008
0.999797
0.999982
1.00021
0.999865
0.999806
1.00024
1.00014
0.999892
1.00012
1.00021
1.00007
1.00012
0.999623
0.999918
0.999712
0.999427
0.999757
1.00011
0.9997
0.99969
1.00014
1.00001
0.999782
1.00003
1.0001
0.999916
0.999941
1.00003
1.00002
0.999882
1.00005
1.00003
0.999778
1
1.00008
0.99991
0.999914
1.00001
1.00005
0.999865
0.999916
1.00016
0.999922
0.99989
1.00006
0.999916
0.999919
1.00001
1
0.999839
0.99993
1.00012
0.999914
0.999828
1.00021
1.00018
0.999836
1.00017
1.00042
1.00018
0.999994
1.00025
0.999632
0.999377
0.999681
0.999593
0.999175
0.999582
0.999908
0.999634
0.999749
1.00003
0.999957
0.999861
0.999944
1.00002
0.999935
0.999914
1.00004
1.00006
0.999796
0.999894
1.00015
0.999951
0.999768
1.00003
1.00019
0.999759
0.999911
1.00017
0.999989
0.999796
1.00005
1.00014
0.999872
0.999892
1.00004
0.999985
0.999884
1
1.00007
0.99993
0.999897
1.00016
1.00021
0.999999
1.0003
1.00063
1.00023
1.0002
1.00043
1.00025
0.999661
0.99859
0.998809
0.999382
0.999089
0.998878
0.999262
0.999534
0.999499
0.999633
0.999867
0.999942
0.999806
0.999974
1.00006
0.999824
0.999865
1.0001
1.00002
0.999854
1.00017
0.999887
0.999925
1.00008
0.999901
1.00005
0.999843
1
1.00007
0.999767
1.00007
0.999916
0.999822
1.00008
1.00009
0.999854
0.999973
1.00013
0.999949
1.00003
1.0003
1.00035
1.00029
1.00056
1.00085
1.00063
1.0004
1.00089
1.00101
1.00018
0.998297
0.998761
0.998557
0.998312
0.998569
0.998664
0.998534
0.998854
0.999275
0.999282
0.999573
0.999943
0.999958
0.99966
1.00008
1.00016
0.999875
0.999828
1.00008
1.00018
0.999611
1.00008
1.00018
0.999763
0.999887
1.00003
1.00019
0.999763
0.999839
1.00035
0.99976
0.999835
1.00013
1.00006
0.99976
0.999862
1.00027
0.999929
0.999951
1.00032
1.00052
1.00045
1.00085
1.00113
1.0009
1.00097
1.00121
1.00099
1.00074
1.00125
0.997535
0.998523
0.998038
0.997649
0.997856
0.998218
0.997968
0.998013
0.998561
0.998921
0.998839
0.999325
0.999893
0.999923
0.999636
1.00009
0.999978
0.999878
0.99991
0.999935
1.00003
0.999902
0.999947
1
0.999948
0.999984
0.999952
1
1.00004
0.999887
0.999984
1.00005
1.00003
0.999913
0.999871
1.00027
0.999959
0.999966
1.00049
1.00087
1.00069
1.00104
1.00145
1.00138
1.00113
1.00151
1.00158
1.00135
1.0009
1.00174
0.99814
0.996975
0.996955
0.998041
0.997421
0.997364
0.997534
0.997459
0.99734
0.998126
0.998504
0.998581
0.999113
0.999711
0.999752
0.999595
1.00022
1.00004
0.99986
0.999735
1.00026
1.00014
0.99965
1.00015
1.00008
0.999889
0.999754
1.00028
0.999835
0.999632
1.00021
1.00005
0.999868
0.999752
1.00029
1.0001
1.00011
1.00068
1.00104
1.00102
1.00133
1.00196
1.00174
1.00167
1.00186
1.00183
1.00116
1.00219
1.00223
1.00118
0.997472
0.997016
0.997731
0.998409
0.997155
0.997349
0.99785
0.997658
0.997297
0.997128
0.998011
0.998138
0.998493
0.999059
0.999737
0.999897
0.999531
1.00014
0.999987
1.00012
0.99975
0.999895
1.00016
0.999809
0.99996
0.999966
1.00014
0.999764
1.00001
1.00021
0.999823
0.999945
0.999799
1.00033
0.999978
1.00008
1.00067
1.00105
1.00127
1.00137
1.00208
1.00186
1.00157
1.00152
1.00183
1.00207
1.00112
1.00168
1.00216
1.00182
0.996519
0.998317
0.998028
0.997682
0.997874
0.998799
0.997607
0.997419
0.997638
0.997373
0.996829
0.997715
0.997993
0.998323
0.998675
0.999627
0.999755
0.999503
1.00029
0.999933
0.999738
0.999859
1.00019
0.999933
0.999846
1.00008
1.00004
0.999746
1.00006
1.00019
0.999973
0.999667
1.00035
1.00012
1.00015
1.00094
1.00124
1.00139
1.00161
1.00236
1.00183
1.0017
1.00196
1.00194
1.00092
1.00182
1.002
1.00174
1.00124
1.00291
0.997549
0.998082
0.997143
0.99743
0.997969
0.998224
0.997791
0.99788
0.997849
0.997625
0.997193
0.996671
0.997585
0.997765
0.998457
0.998685
0.999805
0.999739
0.999584
1.00008
1.0002
1.00007
0.999705
1.0001
1.00021
0.999755
0.999782
1.00023
0.999882
0.999708
0.99986
1.00026
1.00013
0.999954
1.00096
1.00111
1.00159
1.00174
1.00249
1.00216
1.00183
1.00187
1.00184
1.00197
1.00181
1.00207
1.00224
1.00285
1.00185
1.0021
0.998001
0.996897
0.996927
0.998689
0.99736
0.996909
0.998433
0.998957
0.99778
0.997438
0.998235
0.997443
0.996611
0.997916
0.997809
0.99846
0.998698
0.999866
0.999701
0.999645
1.00019
0.999921
0.999794
0.999909
0.999998
0.999946
0.999986
1.00012
1.00003
0.999748
1.00022
1.00019
0.999938
1.00092
1.00109
1.00155
1.00144
1.00261
1.00201
1.00138
1.00226
1.00206
1.00116
1.00157
1.00287
1.00256
1.00113
1.00288
1.00291
1.00193
0.996916
0.997826
0.996782
0.997251
0.996455
0.998051
0.997207
0.997848
0.997941
0.998193
0.997613
0.997757
0.997027
0.996325
0.997539
0.997841
0.9985
0.998795
0.999787
0.999985
0.999481
0.999978
1.00025
0.999899
0.999719
1.00018
1.0001
0.999682
0.999889
1.00043
0.99991
0.999962
1.00084
1.00111
1.00156
1.00184
1.00297
1.00243
1.00196
1.00228
1.00184
1.00196
1.00222
1.00267
1.00179
1.00324
1.00264
1.0028
1.00203
1.00322
0.997045
0.999434
0.997512
0.996745
0.997532
0.998672
0.996694
0.996418
0.999093
0.998425
0.997522
0.997398
0.998447
0.997113
0.996776
0.997651
0.998148
0.99871
0.999213
0.999923
0.999844
0.999901
1.00005
1.00011
0.999981
0.999934
0.999826
0.999878
0.999999
1.00002
0.999888
1.00047
1.00092
1.00129
1.00176
1.00261
1.00242
1.00142
1.00245
1.00251
1.00162
1.00114
1.00334
1.00304
1.0014
1.00233
1.00316
1.00249
1.0008
1.00304
0.998122
0.997603
0.996773
0.998713
0.997434
0.996618
0.997408
0.997558
0.99695
0.997344
0.998179
0.998593
0.997099
0.997815
0.99688
0.996597
0.997804
0.998249
0.998756
0.999092
1.00012
0.999972
0.999467
0.999942
1.00016
0.999816
0.999883
1.00041
0.999995
0.999704
1.00063
1.0009
1.00129
1.00168
1.00275
1.00269
1.00199
1.00289
1.00164
1.00172
1.00258
1.00297
1.00228
1.00235
1.00349
1.00257
1.00137
1.00332
1.00252
1.00192
0.997478
0.996198
0.996049
0.998119
0.996387
0.996166
0.997172
0.997464
0.996335
0.9967
0.998873
0.99753
0.997115
0.997466
0.997863
0.996913
0.996575
0.998048
0.998655
0.999232
0.999632
0.999848
1.00014
0.999808
0.999854
1.00006
1.00016
0.999784
0.999972
1.00015
1.00047
1.00094
1.00141
1.00286
1.00277
1.00209
1.00252
1.00281
1.00243
1.00125
1.00315
1.00336
1.00241
1.00262
1.00355
1.00328
1.00205
1.00373
1.0037
1.00255
0.99538
0.999082
0.997547
0.996719
0.997778
0.999001
0.997571
0.997095
0.998671
0.997674
0.996654
0.998076
0.998867
0.998083
0.996878
0.997703
0.997186
0.997114
0.998435
0.999047
0.99914
0.999616
1.0004
0.999974
0.999797
1.00005
1.00001
0.999504
1.00012
1.0006
1.0006
1.00114
1.00242
1.00252
1.00213
1.00299
1.00218
1.00123
1.00192
1.00329
1.00221
1.00117
1.00302
1.00246
1.00082
1.00204
1.00325
1.00214
1.00088
1.00449
0.99614
0.997693
0.995982
0.996267
0.99685
0.997432
0.996104
0.996564
0.997153
0.997048
0.996157
0.997204
0.998115
0.996837
0.99704
0.996888
0.997065
0.99684
0.997172
0.998562
0.999446
0.999702
0.999521
0.999931
1.00016
0.999793
0.999864
1.0003
1.00015
1.00029
1.00102
1.00237
1.00287
1.0028
1.00315
1.003
1.0031
1.00196
1.00273
1.00374
1.00285
1.00285
1.00348
1.00364
1.00275
1.00309
1.0034
1.00383
1.00241
1.00338
0.997853
0.995152
0.995528
0.999537
0.996566
0.994881
0.997885
0.998058
0.996581
0.99652
0.998776
0.997587
0.99658
0.998873
0.999009
0.997407
0.996841
0.997591
0.99778
0.998179
0.999342
0.999848
0.999504
0.999944
1.00003
0.99993
0.999887
1.00033
0.999977
1.00029
1.00147
1.00204
1.0023
1.00308
1.00275
1.00129
1.00116
1.00335
1.00223
1.00099
1.00336
1.00331
1.0019
1.00181
1.00503
1.00323
1.00044
1.00421
1.00471
1.0017
0.995694
0.997309
0.996797
0.997453
0.996293
0.996766
0.997714
0.997563
0.997046
0.99748
0.997679
0.997404
0.997164
0.997435
0.997688
0.996899
0.996878
0.996682
0.996991
0.997705
0.998244
0.999309
1.00015
1.00003
0.999592
1.00018
0.999954
0.999678
1.00031
1.00141
1.00209
1.00285
1.00336
1.00329
1.00321
1.0025
1.00258
1.00276
1.00255
1.00251
1.00258
1.00264
1.00262
1.00237
1.00301
1.00365
1.00302
1.00303
1.00264
1.00454
0.995441
0.999852
0.996925
0.994261
0.996429
0.99884
0.99618
0.995178
0.998406
0.997179
0.996085
0.9967
0.998237
0.996989
0.996416
0.998473
0.998089
0.996512
0.996814
0.998142
0.998833
0.999232
0.99993
0.999905
0.999849
1.00001
0.999957
0.999819
1.00051
1.00105
1.00176
1.00314
1.00371
1.00234
1.0017
1.00344
1.00293
1.00156
1.00324
1.00413
1.00284
1.00136
1.00466
1.00374
1.00108
1.00365
1.00589
1.00295
1.0008
1.00461
0.997223
0.996977
0.994605
0.997955
0.996971
0.996276
0.998273
0.997748
0.996929
0.996933
0.997961
0.997844
0.997164
0.997971
0.998301
0.997649
0.997421
0.997338
0.997236
0.997249
0.998422
0.999138
0.999211
0.999698
1.00033
0.999631
0.999975
1.00054
1.00075
1.00145
1.00278
1.0031
1.00308
1.00282
1.00241
1.00174
1.00209
1.00298
1.00226
1.00192
1.00309
1.00318
1.00239
1.00183
1.00403
1.00319
1.00213
1.00555
1.00384
1.0026
0.999117
0.993035
0.995459
1.00004
0.995804
0.994436
0.997499
0.997589
0.995239
0.996102
0.99878
0.996973
0.995975
0.997929
0.997945
0.99631
0.996563
0.997665
0.997054
0.996609
0.997978
0.999276
0.999775
0.999937
1.00005
0.999744
0.999932
1.00013
1.00053
1.00186
1.00363
1.00354
1.00273
1.0036
1.00379
1.00196
1.00189
1.00391
1.0032
1.00118
1.00388
1.00487
1.00229
1.00255
1.00577
1.00436
1.00083
1.00505
1.00725
1.00153
0.991547
0.999519
0.997476
0.993873
0.997151
0.998324
0.996452
0.994931
0.998867
0.998644
0.996575
0.997314
0.998472
0.997555
0.996613
0.997989
0.99863
0.997104
0.996817
0.998076
0.998424
0.99877
0.999728
0.999783
0.999474
1.00023
1.00014
1.00008
1.00118
1.00198
1.00255
1.00383
1.0036
1.00186
1.00201
1.00333
1.00248
1.00144
1.00258
1.0037
1.00167
1.00115
1.00502
1.00364
1.00203
1.00303
1.00682
1.0024
1.0006
1.00949
0.994944
0.99975
0.995013
0.992827
0.996176
0.99805
0.995077
0.994981
0.997652
0.997374
0.996472
0.997182
0.998407
0.997144
0.996555
0.997393
0.997162
0.996631
0.996873
0.997653
0.998003
0.998622
0.999429
0.999935
0.999868
1.00008
0.999837
1.00032
1.00148
1.00244
1.00278
1.00362
1.00393
1.00305
1.00247
1.00345
1.00318
1.0015
1.00275
1.00387
1.0029
1.00228
1.00516
1.00528
1.00234
1.00392
1.00718
1.00481
1.00171
1.00555
0.999614
0.990566
0.994539
1.00194
0.99704
0.99176
0.998336
0.998753
0.995979
0.99616
0.998728
0.99757
0.996444
0.998107
0.99832
0.996748
0.996806
0.998347
0.997842
0.996878
0.997936
0.999398
0.999269
0.999673
1.00011
0.999762
1.00016
1.00096
1.00097
1.00266
1.00434
1.00371
1.00254
1.00315
1.00298
1.00151
1.00171
1.0034
1.00237
1.00109
1.00386
1.00429
1.00182
1.00161
1.00844
1.0035
0.998999
1.00664
1.00982
0.999167
0.992261
0.993129
0.993673
0.997679
0.994643
0.994174
0.99702
0.996668
0.99596
0.997213
0.997967
0.997228
0.997069
0.998034
0.997164
0.996523
0.996978
0.997111
0.996862
0.997668
0.998809
0.999521
0.99953
0.999703
0.999961
0.99973
1.00013
1.00061
1.00079
1.00192
1.00362
1.00444
1.00343
1.00281
1.00333
1.00292
1.00175
1.00286
1.00329
1.00254
1.00316
1.00441
1.00383
1.00278
1.00541
1.00598
1.00217
1.00617
1.00709
1.00954
0.991843
1.00419
0.997255
0.990074
0.99761
0.999923
0.994765
0.994055
0.998433
0.997929
0.995815
0.997897
0.9993
0.997452
0.996415
0.997609
0.997444
0.99591
0.996806
0.998456
0.998433
0.998545
0.999798
0.999984
0.999874
1.0002
0.999959
1.00008
1.00205
1.00264
1.0028
1.00462
1.00531
1.0028
1.0019
1.00345
1.0021
0.999896
1.00203
1.00497
1.00217
1.00116
1.00699
1.00555
0.999134
1.00385
1.01234
1.00025
0.997374
1.02154

VECTORS velocity double
1.11026e-16 2.15112e-16 0
-7.28606e-17 8.32692e-17 0
-6.9391e-18 -1.28373e-16 0
-3.81651e-17 -6.9391e-17 0
-1.07556e-16 3.81651e-17 0
9.02083e-17 -1.38782e-17 0
-5.55128e-17 5.55128e-17 0
1.38782e-16 2.01234e-16 0
8.67388e-17 1.80417e-16 0
-7.97997e-17 1.38782e-16 0
2.56747e-16 -4.16346e-17 0
2.01234e-16 -7.97997e-17 0
3.1226e-16 -3.46955e-18 0
2.15112e-16 6.9391e-17 0
-1.28373e-16 6.59215e-17 0
3.1226e-17 -3.1226e-17 0
-2.15112e-16 9.02083e-17 0
9.02083e-17 1.63069e-16 0
1.66538e-16 3.81651e-17 0
-8.67388e-17 8.67388e-17 0
-1.14495e-16 -2.77564e-17 0
-3.1226e-17 -1.04087e-17 0
7.97997e-17 -2.01234e-16 0
1.87356e-16 -7.28606e-17 0
2.2899e-16 3.81651e-17 0
-1.5266e-16 1.24904e-16 0
3.46955e-17 1.49191e-16 0
-1.21434e-16 -2.81034e-16 0
6.9391e-18 -7.97997e-17 0
4.85737e-17 -4.85737e-17 0
4.16346e-17 -2.08173e-17 0
-7.97997e-17 3.46955e-17 0
3.81651e-17 2.11643e-16 0
-7.28606e-17 1.38782e-16 0
7.63301e-17 -2.91442e-16 0
-1.14495e-16 2.01234e-16 0
-8.32692e-17 2.18582e-16 0
2.08173e-17 2.08173e-17 0
-5.20433e-17 -1.73478e-17 0
-3.01851e-16 5.20433e-17 0
-1.83886e-16 -1.38782e-16 0
-3.1226e-16 -7.28606e-17 0
-1.66538e-16 -3.81651e-17 0
-1.83886e-16 -1.24904e-16 0
0 8.32692e-17 0
3.1226e-17 -1.42252e-16 0
-6.59215e-17 1.5266e-16 0
2.04704e-16 -1.07556e-16 0
-1.90825e-16 -1.04087e-17 0
2.67155e-16 -1.5266e-16 0
1.14495e-16 8.67388e-17 0
1.45721e-16 1.17965e-16 0
6.9391e-18 8.67388e-17 0
-1.00617e-16 2.08173e-17 0
-1.63069e-16 2.49808e-16 0
-7.63301e-17 1.28373e-16 0
1.11026e-16 1.31843e-16 0
1.24904e-16 3.15729e-16 0
1.70008e-16 3.19199e-16 0
1.80417e-16 1.17965e-16 0
2.77564e-16 2.15112e-16 0
2.56747e-16 2.53277e-16 0
2.60216e-16 1.5266e-16 0
1.5613e-16 -8.32692e-17 0
-3.46955e-17 1.14495e-16 0
-5.20433e-17 1.5266e-16 0
-4.51042e-17 2.84503e-16 0
7.97997e-17 2.63686e-16 0
4.51042e-17 2.25521e-16 0
-6.9391e-17 1.94295e-16 0
-8.67388e-17 2.11643e-16 0
-1.45721e-16 6.24519e-17 0
4.85737e-17 1.97764e-16 0
2.2899e-16 2.39399e-16 0
3.15729e-16 6.59215e-17 0
1.24904e-16 3.26138e-16 0
7.63301e-17 2.53277e-16 0
1.38782e-17 2.25521e-16 0
3.1226e-17 2.63686e-16 0
2.81034e-16 3.81651e-17 0
9.71474e-17 2.04704e-16 0
0 4.40633e-16 0
2.08173e-16 9.71474e-17 0
-6.9391e-17 2.56747e-16 0
-2.01234e-16 7.63301e-17 0
-5.20433e-17 5.20433e-17 0
-5.89824e-17 0 0
-2.87973e-16 3.43486e-16 0
-6.9391e-18 2.77564e-17 0
-2.70625e-16 3.19199e-16 0
-2.2899e-16 3.01851e-16 0
-2.01234e-16 5.55128e-17 0
-1.31843e-16 2.63686e-16 0
1.45721e-16 -6.9391e-18 0
1.04087e-17 5.55128e-17 0
3.46955e-18 -2.15112e-16 0
-1.31843e-16 1.42252e-16 0
-8.67388e-17 -1.38782e-17 0
-1.04087e-17 1.35312e-16 0
-6.9391e-18 -1.63069e-16 0
1.24904e-16 -1.80417e-16 0
1.35312e-16 -1.5613e-16 0
-3.81651e-17 -1.42252e-16 0
1.31843e-16 -1.5266e-16 0
-5.20433e-17 -1.73478e-17 0
7.97997e-17 7.63301e-17 0
1.59599e-16 2.42869e-17 0
1.11026e-16 2.70625e-16 0
1.38782e-16 4.16346e-17 0
1.21434e-16 -7.63301e-17 0
1.31843e-16 -1.07556e-16 0
1.76947e-16 2.08173e-17 0
2.60216e-16 2.77564e-17 0
2.01234e-16 3.46955e-18 0
4.16346e-17 -7.28606e-17 0
6.9391e-17 -1.38782e-16 0
-8.67388e-17 9.71474e-17 0
2.42869e-17 2.56747e-16 0
1.21434e-16 1.45721e-16 0
-3.81651e-17 1.07556e-16 0
8.67388e-17 2.42869e-17 0
-4.51042e-17 1.73478e-16 0
2.81034e-16 2.42869e-17 0
1.59599e-16 1.94295e-16 0
2.18582e-16 3.8512e-16 0
1.07556e-16 2.60216e-16 0
6.24519e-17 2.39399e-16 0
6.9391e-17 6.24519e-17 0
-1.04087e-16 3.71242e-16 0
1.73478e-17 1.63069e-16 0
6.9391e-18 3.71242e-16 0
1.14495e-16 3.29607e-16 0
4.16346e-17 1.07556e-16 0
-5.20433e-17 -1.45721e-16 0
-2.77564e-17 3.1226e-17 0
-3.46955e-18 -2.42869e-17 0
-7.97997e-17 -5.89824e-17 0
-2.08173e-16 -1.73478e-17 0
-1.73478e-16 -5.89824e-17 0
-1.31843e-16 -2.08173e-17 0
-2.53277e-16 -1.04087e-16 0
-3.33077e-16 4.51042e-17 0
-1.11026e-16 -5.89824e-17 0
-4.51042e-17 1.49191e-16 0
-3.1226e-17 -4.85737e-17 0
1.04087e-17 -1.49191e-16 0
1.38782e-17 -2.08173e-17 0
-1.70008e-16 1.59599e-16 0