# vtk DataFile Version 4.0
SiwiRVisFile
ASCII
DATASET STRUCTURED_POINTS
DIMENSIONS 25 25 1
ORIGIN 0 0 0
SPACING 1 1 1
POINT_DATA 625

SCALARS flags double 1
LOOKUP_TABLE default
1
1
1
1
1
1
1
1
1
1
1
1
1
1
1
1
1
1
1
1
1
1
1
1
1
1
1
1
1
1
1
1
1
1
1
1
1
1
1
1
1
1
1
1
1
1
1
1
1
1
1
1
1
1
1
1
1
1
1
1
1
1
1
1
1
1
1
1
1
1
1
1
1
1
1
1
1
1
1
1
1
1
1
1
1
1
1
1
1
1
1
1
1
1
1
1
1
1
1
1
1
1
1
1
1
1
1
1
1
1
1
1
1
1
1
1
1
1
1
1
1
1
1
1
1
1
1
1
1
1
1
1
1
1
1
1
1
1
1
1
1
1
1
1
1
1
1
1
1
1
1
1
1
1
1
1
1
1
1
1
1
1
1
1
1
1
1
1
1
1
1
1
1
1
1
1
1
1
1
1
1
1
1
1
1
1
1
1
1
1
1
1
1
1
1
1
1
1
1
1
1
1
1
1
1
1
1
1
1
1
1
1
1
1
1
1
1
1
1
1
1
1
1
1
1
1
1
1
1
1
1
1
1
1
1
1
1
1
1
1
1
1
1
1
1
1
1
1
1
1
1
1
1
1
1
1
1
1
1
1
1
1
1
1
1
1
1
1
1
1
1
1
1
1
1
1
1
1
1
1
1
1
1
1
1
1
1
1
1
1
1
1
1
1
1
1
1
1
1
1
1
1
1
1
1
1
1
1
1
1
1
1
1
1
1
1
1
1
1
1
1
1
1
1
1
1
1
1
1
1
1
1
1
1
1
1
1
1
1
1
1
1
1
1
1
1
1
1
1
1
1
1
1
1
1
1
1
1
1
1
1
1
1
1
1
1
1
1
1
1
1
1
1
1
1
1
1
1
1
1
1
1
1
1
1
1
1
1
1
1
1
1
1
1
1
1
1
1
1
1
1
1
1
1
1
1
1
1
1
1
1
1
1
1
1
1
1
1
1
1
1
1
1
1
1
1
1
1
1
1
1
1
1
1
1
1
1
1
1
1
1
1
1
1
1
1
1
1
1
1
1
1
1
1
1
1
1
1
1
1
1
1
1
1
1
1
1
1
1
1
1
1
1
1
1
1
1
1
1
1
1
1
1
1
1
1
1
1
1
1
1
1
1
1
1
1
1
1
1
1
1
1
1
1
1
1
1
1
1
1
1
1
1
1
1
1
1
1
1
1
1
1
1
1
1
1
1
1
1
1
1
1
1
1
1
1
1
1
1
1
1
1
1
1
1
1
1
1
1
1
1
1
1
1
1
1
1
1
1
1
1
1
1
1
1
1
1
1
1
1
1
1
1
1
1
1
1
1
1
1
1
1
1
1
1
1
1
1
1
1
1
1
1
1
1
1
1
1
1
1
1
1
1
1
1
1
1
1
1
1
1
1
1
1
1
1
1
1
1
1
1
1
1
1
1

SCALARS density double 1
LOOKUP_TABLE default
1
1.00002
1.00015
0.999984
0.999858
1.00011
1.00011
0.999755
0.999873
1.00017
0.99978
0.99951
0.999921
0.999859
0.999364
0.999608
0.999954
0.99954
0.999436
0.999937
0.999781
0.999333
0.999687
0.999904
0.999391
1.00032
0.999743
0.999884
1.00033
0.999986
0.999714
1.00005
1.00013
0.999785
0.999774
0.999953
0.999828
0.999659
0.999673
0.999715
0.999708
0.999647
0.999588
0.999701
0.99978
0.999611
0.999522
0.999745
0.999727
0.999425
0.999959
1.00014
0.999937
0.999897
1.00008
0.99994
0.999782
1.00003
0.999988
0.999629
0.999839
1.00002
0.999586
0.999568
0.999965
0.999688
0.99939
0.999843
0.999904
0.999363
0.999601
1.00003
0.999518
0.999291
0.999905
0.999729
1.00026
1.00008
0.999604
0.999889
1.0002
0.999839
0.999606
0.999964
1.00001
0.999659
0.999662
0.999897
0.999813
0.999587
0.999665
0.999818
0.999716
0.999585
0.999678
0.999762
0.999694
0.999593
0.999616
0.999697
1.00011
0.999552
0.999841
1.0001
0.999808
0.999722
0.999998
0.999788
0.999641
0.99994
0.999817
0.999588
0.99988
0.999878
0.999527
0.999749
0.999951
0.999518
0.999518
1.00007
0.999715
0.99928
0.999888
1.00005
0.999272
0.99986
0.999458
0.999748
1.00015
0.999873
0.999481
0.999768
1.00006
0.999642
0.999488
0.999911
0.999957
0.999601
0.99965
0.999973
0.999794
0.999529
0.999764
0.999866
0.99961
0.999665
0.999867
0.99972
0.99966
0.999789
0.999184
1.00019
0.999762
1
0.9998
0.999986
0.999418
0.999535
0.999905
0.99968
0.999664
0.999878
0.999724
0.999713
0.999967
0.999772
0.999596
1
1
1
0.999824
1.00027
0.999549
0.999381
1.00025
0.999585
0.999659
0.999416
1
0.999536
0.99979
0.999576
0.999261
0.999716
1.00001
0.999619
0.999549
0.999989
0.999984
0.999555
0.999777
1.00013
1
1
1
0.999927
0.999582
1.00005
1.00006
0.999558
0.999859
0.998433
0.999158
1
0.999311
0.998874
0.99984
0.999795
1
0.999699
0.999867
0.999735
0.999767
0.999856
0.999796
1
1.00001
1
1
1
0.999912
0.999463
1.00027
1.00042
0.99944
0.998816
0.999479
0.999461
1
0.999526
0.999418
0.999187
0.999465
0.999478
0.999468
0.999818
0.999991
0.99965
0.999706
1.00022
0.999949
0.999594
1.00031
1.00046
0.999625
1.0001
1.00066
0.99968
0.999657
1.00065
0.998673
1.00021
0.999228
0.997974
0.999406
1.00016
0.998917
0.998896
0.999941
0.999775
0.999428
0.99973
1.00004
0.999977
0.999928
0.99985
1
1.00036
1.00014
0.999658
1.00032
1.0006
0.999805
0.999653
1.00058
0.999903
0.998386
0.998786
0.999965
0.999005
0.998735
0.999725
1
0.999489
0.999498
1
0.999812
1.00001
1.00007
0.9997
1.0001
1.00052
0.999671
0.999804
1.00094
1.00006
0.999248
1.00079
1.00077
0.99911
0.999368
0.998047
0.999181
1.00024
0.99893
0.998285
0.999635
1.0002
0.998755
1
1.00035
1.00011
0.999782
0.999983
1.00018
1.00016
1.00005
0.999923
1.00021
1.00042
1.00003
0.99985
1.00032
1.00055
0.999932
0.998058
1.00068
0.999555
0.997653
0.999597
1.00047
0.998515
0.998889
1.00001
1.00018
0.999786
1.00011
1.00012
1.00002
1.00034
0.99999
0.999671
1.00075
1.0005
0.999015
1.00037
1.00143
0.999165
0.999182
1.00168
0.999371
0.999914
0.998965
0.998622
0.999528
0.999815
0.998969
0.998986
1.00012
1.00019
0.999767
1.00009
1.00042
1.00011
0.999936
1.00024
1.0003
1.00015
0.999986
1.00019
1.00015
1.00009
1.00029
0.999915
0.999802
1.00062
0.996937
0.998896
1.0015
0.99861
0.997552
1.00072
1
0.999667
0.999652
1.00055
1.00025
1.00001
1.00035
1.00012
1.00027
1.0006
0.999522
0.999783
1.0016
0.999689
0.998344
1.00137
1.00137
0.997939
0.998316
0.999249
0.999754
0.999051
0.999229
0.9994
0.999139
1
1.00009
1.00032
1.00051
1
1.00005
1.00048
1.00058
0.999944
1.00007
1.00054
1.00031
0.999532
1.0002
1.0006
0.999183
0.999765
1.00126
0.997773
1.00237
0.99951
0.996439
1.00026
1.00156
0.997518
1
1.00105
1.00067
0.999631
1.00066
1.00089
1.00004
1.00029
1.00059
0.999983
1.00052
1
0.998059
1.00048
1.00212
0.998295
0.997962
1.00227
1.00119
0.997738
0.998388
1.00094
0.99905
0.998247
1.00035
1
1.00042
1.00049
1.00045
1.00059
1.00065
1.00029
1.00011
1.00078
1.0005
0.999905
1
1.00127
0.999226
0.998172
1.00159
1.00085
0.996724
1.00033
0.995483
0.999222
1.00236
0.998473
0.997385
1.00111
1
0.999794
1.00018
1.00142
1.00018
0.999904
1.00127
1.00067
0.999563
1
1
1
1.00139
0.99943
0.997471
1.00132
1.00171
0.996849
0.995425
1.00262
1.00042
0.995512
0.999859
1.0017
0.998433
0.999101
1.00125
1.00078
1.00049
1.00042
1.00052
1.0004
1.00094
1.00041
1
1
1
1
1
1
1
0.997707
1.00557
0.999422
1.00277
0.99809
0.99612
1.00012
1.00105
0.998594
0.999906
1.00144
1.00038
0.999623
1.00106
1.00137
0.999263
1.0002
1.00213
1
1
1
1
1.00347
1.00881
0.999991
1.00045
1.00675
1.00292
0.990327
0.997213
1.00524
1
0.997089
1.00135
1.00127
0.999168
1.00094
1
1.00051
1.00045
1.00125
0.999554
0.999605
1.00236
0.996261
0.996955
1.00804
1.00442
0.993516
1.00416
1.01315
0.99723
0.994187
0.996345
1.00079
0.999905
0.996425
0.998797
1.00041
0.999687
1.00087
1.00303
1.00169
1.00733
1
1.00177
1.00118
0.998413
1
0.997844
1.00236
1.00415
0.999524
0.999417
1.00663
1.00527
1.00229
0.994378
1.01004
0.999265
0.992609
1.00034
1.00145
0.997822
0.999305
1.00197
1.00191
1.00396
1.00891
1.00235
0.995496
1.00078
1.00298
0.999598
1.00425
1.00406
0.993487
1.00087
1.0131
0.998912
0.991475
1.02257

VECTORS velocity double
1.13893e-05 1.55327e-05 0
-0.000100517 8.58257e-05 0
-0.000187231 1.48044e-05 0
-0.000154037 -1.32861e-05 0
-0.000118651 3.27856e-05 0
-0.000279223 9.06445e-05 0
-0.000342041 -2.205e-05 0
-0.000252783 -2.57399e-05 0
-0.000251397 5.24452e-05 0
-0.000345882 5.45562e-06 0
-0.000292156 -4.25974e-05 0
-0.000246197 -8.37028e-06 0
-0.000242092 -1.16124e-05 0
-0.000269066 -1.82315e-05 0
-0.000270533 -8.65439e-06 0
-0.000276462 -3.14738e-05 0
-0.000246362 -2.23791e-05 0
-0.000288596 1.13895e-05 0
-0.000333109 1.27699e-05 0
-0.000268761 -8.41956e-05 0
-0.000150445 -1.16406e-05 0
-0.000188891 9.71461e-06 0
-0.000156807 -4.75288e-05 0
-6.20583e-05 -6.52948e-05 0
1.25582e-05 -8.22945e-06 0
-5.68413e-05 0.000133365 0
-0.000299248 0.000326537 0
-0.00043328 8.32153e-05 0
-0.000528636 3.48655e-05 0
-0.000797082 0.000246086 0
-0.000961381 0.000202265 0
-0.000849248 -4.52793e-05 0
-0.000945166 3.3514e-05 0
-0.00112781 0.000143317 0
-0.00105585 -5.58047e-05 0
-0.000867275 -0.000127843 0
-0.000955417 1.60521e-05 0
-0.000989065 -6.91355e-05 0
-0.000791836 -0.000130367 0
-0.000737802 2.01277e-05 0
-0.000986219 7.06758e-06 0
-0.00100256 -0.00011424 0
-0.000825978 -2.35109e-05 0
-0.000843543 4.62771e-05 0
-0.000968139 -0.000186893 0
-0.000722027 -0.000223096 0
-0.00038658 -9.94029e-05 0
-0.000311903 -0.000104396 0
-0.000258685 -0.00026092 0
-5.29142e-05 -0.000109614 0
-9.84664e-05 0.000411481 0
-0.000229606 0.000463727 0
-0.000521058 0.000432358 0
-0.00110789 0.000400139 0
-0.00127833 0.000403765 0
-0.00115218 0.000174095 0
-0.00134636 0.000168003 0
-0.00170612 0.00022624 0
-0.00159099 5.39444e-05 0
-0.00149782 -7.86048e-05 0
-0.00161956 -0.000129734 0
-0.00148652 -0.000117027 0
-0.0012592 -0.000160576 0
-0.00134209 -0.000193922 0
-0.00132202 -2.85963e-05 0
-0.00118187 5.46486e-05 0
-0.00130077 -6.78794e-05 0
-0.00151913 -0.000106493 0
-0.00130517 -0.000103752 0
-0.00111159 -0.000179698 0
-0.00114679 -0.00048311 0
-0.000873211 -0.000543707 0
-0.000343677 -0.0002954 0
-0.00016748 -0.000349986 0
-7.10545e-05 -0.000351307 0
8.00207e-05 0.000498875 0
-0.000303144 0.000877662 0
-0.00108087 0.00105527 0
-0.00140383 0.000720966 0
-0.00120346 0.000310742 0
-0.00132284 0.000330468 0
-0.00171062 0.000503284 0
-0.00188171 0.000392942 0
-0.00185639 -4.58008e-06 0
-0.00196185 -5.9697e-05 0
-0.00196498 -0.000158439 0
-0.00165883 -0.000371414 0
-0.00139324 -0.00028087 0
-0.00143948 -0.000194275 0
-0.00139514 -0.000144883 0
-0.0012295 -2.65417e-05 0
-0.0012981 0.000111903 0
-0.00160244 -5.58439e-05 0
-0.00153967 -0.000334269 0
-0.00116205 -0.000409808 0
-0.00102686 -0.000526236 0
-0.00105318 -0.000883987 0
-0.000604652 -0.00088056 0
-7.0647e-05 -0.000589845 0
8.56611e-05 -0.000397303 0
-0.000105954 0.000573211 0
-0.000927808 0.00199635 0
-0.00135749 0.00129524 0
-0.000889024 0.000489746 0
-0.000829561 0.000370617 0
-0.00143653 0.000894117 0
-0.00176346 0.00068409 0
-0.00188903 0.000514235 0
-0.00228226 0.000293334 0
-0.00231059 -0.000186502 0
-0.00186055 -0.000443894 0
-0.00173191 -0.000518118 0
-0.0016327 -0.000505683 0
-0.00125821 -0.000366657 0
-0.00109982 -0.00018409 0
-0.0012157 -0.000106033 0
-0.000992102 8.47205e-05 0
-0.000729485 1.66905e-05 0
-0.00102629 -0.000251431 0
-0.00129578 -0.000791338 0
-0.000985029 -0.000660796 0
-0.000782207 -0.000908364 0
-0.000721971 -0.00135977 0
-0.000402751 -0.00120299 0
-1.8611e-05 -0.000334876 0
-0.000347378 0.00127792 0
-0.000813248 0.00246672 0
-0.000713731 0.00109133 0
-0.000466939 0.000118144 0
-0.000443213 0.000693312 0
-0.00074286 0.00141832 0
-0.0014381 0.00131349 0
-0.00238918 0.000910112 0
-0.00273771 0.000405088 0
-0.00234644 -0.000442658 0
-0.00181684 -0.000803634 0
-0.00165444 -0.000683626 0
-0.00150949 -0.000736863 0
-0.00119715 -0.000615644 0
-0.000833498 -0.000422494 0
-0.000583855 -0.000292545 0
-0.000377683 -0.000154856 0
-0.000262962 -5.84065e-07 0
-0.000303174 -6.04589e-05 0
-0.000655155 -0.000478441 0
-0.000927354 -0.000845192 0
-0.000638335 -0.00133293 0
-0.000381156 -0.00131769 0
-0.000528908 -0.00140724 0
-0.000252118 -0.000784146 0
-0.000102848 0.00198639 0
-8.60865e-05 0.00202438 0
3.29577e-05 0.00116299 0
0 0 0
-0.000133892 0.0010329 0
-0.000621704 0.00179484 0
-0.00155408 0.00251775 0
-0.00229902 0.00161095 0
-0.0020478 3.05338e-05 0
-0.00188741 -0.000714815 0
-0.00196944 -0.00105168 0
-0.00155351 -0.0010239 0
-0.00111359 -0.000898908 0
-0.00116283 -0.000847047 0
-0.000964849 -0.000865553 0
-0.00043747 -0.000598316 0
-6.30039e-05 -0.000457168 0
0 0 0
0 0 0
0 0 0
-0.000483278 -0.00064342 0
-0.000772542 -0.00182127 0
-0.00024579 -0.00152074 0
-1.86243e-05 -0.00122341 0
-9.99058e-06 -0.00122971 0
0.000431731 0.00153166 0
0.000251239 0.00252422 0
-0.000148505 0.00116346 0
0 0 0
-6.2324e-05 0.00128636 0
-0.000863963 0.0028319 0
-0.00143909 0.00285359 0
-0.00122423 0.00175138 0
-0.000999852 -0.000119091 0
-0.00100432 -0.000802639 0
-0.0011395 -0.00102243 0
-0.00124957 -0.00117239 0
-0.00132856 -0.000983906 0
-0.00124863 -0.00112385 0
-0.000874167 -0.00112472 0
-0.000443085 -0.00105011 0
-8.01001e-05 -0.00077171 0
0 0 0
0 0 0
0 0 0
-6.34063e-05 -0.000362886 0
-0.000459954 -0.00133282 0
-0.000456797 -0.00231024 0
0.000184319 -0.00172953 0
0.000303108 -0.000844045 0
-0.000222888 0.00121232 0
-0.000346516 0.00320649 0
-8.13195e-05 0.000832126 0
0 0 0
-0.000106774 0.00153932 0
-0.000535959 0.00389771 0
-0.000477728 0.00243373 0
-8.47917e-05 0.00116388 0
0 0 0
-0.000270972 -0.000452399 0
-0.000834122 -0.00061342 0
-0.00148291 -0.000889747 0
-0.00162613 -0.00107946 0
-0.00103007 -0.00148044 0
-0.00073381 -0.00129365 0
-0.000989689 -0.00151459 0
-0.000516559 -0.00118347 0
0 0 0
0 0 0
0 0 0
0.00012044 -0.000339685 0
0.000243427 -0.00106268 0
-7.60491e-05 -0.00236968 0
-0.000469826 -0.0021884 0
-0.000209842 -0.000708135 0
-0.000302402 0.00201722 0
-9.71879e-05 0.00235984 0
0.000232459 0.000890594 0
0 0 0
-0.000608522 0.00219751 0
-0.00129276 0.00352712 0
-0.00119494 0.00265994 0
-0.00101375 0.000832605 0
-0.000902026 4.8227e-05 0
-0.000857406 -6.64282e-05 0
-0.00118136 0.000127946 0
-0.00155562 -0.000650875 0
-0.00145515 -0.00133406 0
-0.00156255 -0.00157595 0
-0.00161384 -0.00152271 0
-0.00133679 -0.00166084 0
-0.00148124 -0.00114114 0
-0.00143734 -0.000674625 0
-0.000674181 -0.000207791 0
-0.000523536 -4.22159e-05 0
-0.000398555 -0.000413882 0
0.000232983 -0.00193686 0
0.000404407 -0.00143337 0
-0.000351714 -0.00155006 0
-0.000355152 -0.00159316 0
0.000304521 0.00203177 0
0.000572575 0.00175323 0
0.0002345 0.00140692 0
-0.00108555 0.00101409 0
-0.0015878 0.00286838 0
-0.00165347 0.00350611 0
-0.00218256 0.00299365 0
-0.00190617 0.000446398 0
-0.00107853 -0.000425445 0
-0.00133106 0.000248601 0
-0.00186521 0.000308372 0
-0.00123091 -0.000887222 0
-0.000942709 -0.00122526 0
-0.00189262 -0.00110439 0
-0.00241938 -0.0015897 0
-0.00207145 -0.00165522 0
-0.00231815 -0.000782587 0
-0.0029404 -0.00119125 0
-0.00227027 -0.000827673 0
-0.00115104 -0.000663473 0
-0.000729919 -0.000565633 0
-0.000971236 -0.00228356 0
-0.000400597 -0.00170031 0
0.000427326 -0.00136109 0
0.000340528 -0.0016199 0
0.000434464 0.000922325 0
9.91944e-05 0.00304641 0
-0.000858887 0.0020036 0
-0.00113374 0.00148207 0
-0.00201543 0.00348609 0
-0.003133 0.00442732 0
-0.00161524 0.00136337 0
0 0 0
-0.000750446 -4.38231e-05 0
-0.000764077 0.00023192 0
0 0 0
-0.000812422 -0.000619745 0
-0.00196733 -0.000565411 0
-0.00195545 -0.000840883 0
-0.00201269 -0.00116972 0
-0.00309803 -0.00124562 0
-0.00327829 -0.00112144 0
-0.00268192 -0.000804559 0
-0.00314833 -0.00107581 0
-0.00308194 -0.00199362 0
-0.00153422 -0.0012324 0
-0.00121422 -0.00160894 0
-0.00121553 -0.0030153 0
-0.000200881 -0.00271115 0
0.000336952 -0.000668542 0
-0.000648794 0.00119004 0
-0.000777522 0.0033264 0
-0.000482249 0.00267044 0
-0.00212431 0.00255478 0
-0.00328974 0.00398725 0
-0.00182411 0.00343064 0
-0.000605478 -5.90175e-05 0
-0.00153781 0.00021206 0
-0.00108549 -0.00026228 0
0 0 0
-0.000338728 0.000367694 0
-0.00133472 0.000495452 0
-0.00202378 -7.88398e-05 0
-0.00190109 -0.000896409 0
-0.00228732 -0.000473339 0
-0.00342116 -0.000526855 0
-0.00372404 -0.0013578 0
-0.00317429 -0.000889431 0
-0.0031642 -0.00111883 0
-0.00358592 -0.00223468 0
-0.00279385 -0.00252012 0
-0.00118177 -0.00238986 0
-0.000894186 -0.00252147 0
-0.00180388 -0.00304877 0
-0.000935659 -0.00145172 0
-0.000236005 0.00253674 0
-0.000263275 0.00186404 0
-0.000692865 0.00363109 0
-0.00253868 0.00517558 0
-0.0030223 0.00345216 0
-0.00278705 0.00188202 0
-0.00432595 0.00165705 0
-0.00445045 -0.000279781 0
-0.00285966 -0.00151114 0
-0.0026467 -0.000423528 0
-0.00285787 0.00111452 0
-0.00237565 0.00080431 0
-0.0016193 -0.000203414 0
-0.00238247 -0.000232174 0
-0.00313727 -1.47188e-05 0
-0.00247139 -0.000419975 0
-0.00315119 -0.000353315 0
-0.00471199 -0.00128922 0
-0.00378195 -0.00191824 0
-0.00287139 -0.00147924 0
-0.00367959 -0.00321328 0
-0.00300732 -0.00488273 0
-0.000866542 -0.00237337 0
-0.000416566 -0.00240729 0
-0.000212664 -0.00337886 0
0.000536137 0.00208411 0
-0.000460824 0.00328913 0
-0.0022747 0.00497819 0
-0.00213154 0.00517657 0
-0.00193402 0.00394432 0
-0.00338498 0.00329352 0
-0.00388883 0.00233815 0
-0.00431334 -0.000471579 0
-0.00448903 -0.00206295 0
-0.0037967 -0.00092351 0
-0.00327232 0.000858582 0
-0.00253011 -0.000157177 0
-0.00205046 -0.000458314 0
-0.002121 0.000313806 0
-0.0022994 6.83931e-05 0
-0.00245735 -0.000279506 0
-0.00340308 0.000857138 0
-0.0044109 -0.00106452 0
-0.00442833 -0.00214209 0
-0.00326737 -0.00281099 0
-0.00255541 -0.00278429 0
-0.00356118 -0.0047226 0
-0.00266693 -0.00478476 0
-4.30794e-06 -0.00368219 0
0.000816044 -0.00226946 0
-2.09651e-05 0.00128715 0
-0.00127621 0.00629184 0
-0.00199875 0.00530229 0
-0.00143927 0.00360878 0
-0.00198304 0.00539193 0
-0.00308747 0.00505633 0
-0.00163013 0.00037029 0
0 0 0
-0.00163823 -0.00121892 0
-0.00263591 -0.00113279 0
-0.0011018 -0.000480987 0
-0.000743996 -0.000429928 0
-0.00149195 7.11404e-05 0
-0.00108016 -8.71874e-05 0
-0.00110584 0.000394468 0
-0.00291218 0.0011417 0
-0.00290887 0.000590547 0
-0.00133364 -0.000694719 0
-0.00359426 -0.000547997 0
-0.00558365 -0.00493902 0
-0.00343518 -0.00328769 0
-0.00244597 -0.0035611 0
-0.00328942 -0.00661896 0
-0.00277267 -0.00692831 0
-0.000485204 -0.00215989 0
-0.00157591 0.00364561 0
-0.00168525 0.0049329 0
-1.30125e-05 0.00503506 0
-0.00181067 0.00581998 0
-0.00252674 0.00489455 0
-0.000147223 0.00295515 0
0.000658547 0.00022465 0
0 0 0
0.000283421 -0.000321817 0
0.000160746 -0.00103372 0
-8.70122e-05 -0.00126664 0
0 0 0
-0.000216791 0.000284876 0
-0.000901957 0.000228542 0
-0.00150665 0.00100764 0
-0.00140236 0.00157482 0
-0.00102754 -0.000394871 0
-0.000920231 4.2812e-06 0
-0.00128076 0.000369211 0
-0.00294054 -0.00265444 0
-0.0049044 -0.00427968 0
-0.00339444 -0.00615513 0
-0.00180777 -0.00429203 0
-0.00371547 -0.0059807 0
-0.00215818 -0.00562241 0
0.000729942 0.00502662 0
0.000532047 0.00341483 0
-0.00187328 0.00646015 0
-0.00403289 0.00803581 0
-0.00292543 0.00331019 0
-0.00109998 0.00065051 0
-0.000278583 0.000986217 0
0 0 0
-0.000169212 -0.000499639 0
-0.000394438 -0.00102373 0
-0.000943649 -0.000551686 0
-0.000755227 -0.000229539 0
8.0668e-05 -7.17242e-06 0
-0.000620103 0.00148101 0
-0.000989475 0.00136858 0
0.000228768 0.00029085 0
0.000127187 -0.000246373 0
-0.000553142 0.000287995 0
0 0 0
2.12952e-05 0.000580613 0
-0.00358236 -0.00270323 0
-0.00645184 -0.00864337 0
-0.00358819 -0.00562799 0
-0.000151656 -0.00683067 0
0.00111382 -0.00805096 0
0.000893126 0.00256573 0
-0.0022333 0.00916285 0
-0.00599687 0.00882643 0
-0.00398392 0.00495292 0
-0.00230545 0.00310102 0
-0.00275368 0.00081947 0
-0.00134735 -0.00126054 0
0 0 0
-0.000464631 0.000472478 0
-0.000958239 -0.000975105 0
-0.00122731 -0.000275929 0
-0.0020158 -0.000541894 0
-0.0022117 -1.337e-05 0
-0.000707247 0.000564483 0
0.000536689 0.000818709 0
0.000202534 0.000455631 0
4.36636e-05 7.91534e-05 0
2.79425e-06 -3.23717e-05 0
0 0 0
0.000239263 0.000762657 0
-0.00019979 0.000109327 0
-0.00304163 -0.0039544 0
-0.00603632 -0.00923816 0
-0.00322678 -0.0125247 0
0.00080921 -0.00476442 0
-0.00192155 0.00409495 0
-0.00466359 0.0131008 0
-0.00391945 0.00838723 0
-0.00526257 0.00494752 0
-0.00954725 0.00401604 0
-0.00931506 -0.000398804 0
-0.0037293 -0.00531368 0
0 0 0
-0.00167393 0.00181376 0
-0.00339957 0.000119743 0
-0.00225067 -0.00116538 0
-0.00110921 0.000228908 0
-0.00161131 0.000147926 0
-0.0013935 -0.00103619 0
-0.000452442 -0.000562295 0
-5.71214e-08 0.00155571 0
0 0 0
0 0 0
0 0 0
6.846e-05 9.08054e-05 0
0.000679131 0.000266007 0
0.000661446 -0.000278182 0
-0.00577972 -0.00592334 0
-0.0101776 -0.0163236 0
-0.00323854 -0.00948904 0
-0.0025162 0.0108023 0
-0.00239621 0.00825637 0
-0.00146433 0.00960515 0
-0.00805962 0.0131606 0
-0.00873296 0.00249407 0
-0.00563655 -0.00294788 0
-0.00847594 -0.00655868 0
-0.00858349 -0.00237547 0
-0.00261418 -0.00026233 0
-0.00141079 0.00218566 0
-0.00411936 -0.00228481 0
-0.00322067 -0.00069245 0
-0.000822204 -0.00164526 0
-0.000211378 0.0004282 0
-0.00183 -0.00085087 0
-0.00080713 0.000113533 0
0 0 0
0 0 0
0 0 0
0 0 0
0 0 0
0 0 0
0 0 0
-0.00469348 -0.0103226 0
-0.00392738 -0.0204934 0
0.00363028 0.0093857 0
-0.00113091 0.0127778 0
-0.0108283 0.014466 0
-0.0104152 0.0135047 0
-0.00520694 0.000609822 0
-0.00390666 -0.00209785 0
-0.00812848 -0.00259705 0
-0.0104544 -0.00520276 0
-0.00739262 -0.00364761 0
-0.00399877 0.00154886 0
-0.0025186 -0.00103373 0
-0.00177065 -0.00197634 0
-0.000217833 -0.00407013 0
0.0023708 0.000365484 0
0.00141741 0.000991549 0
0.000284261 -0.000949045 0
0 0 0
0 0 0
0 0 0
0 0 0
-0.00447208 0.00340761 0
-0.0109227 0.000203169 0
-0.00832981 -0.00161909 0
0.00303502 -0.0161332 0
0.00763953 -0.0172859 0
-0.00259276 0.00755835 0
-0.0134109 0.0289405 0
-0.0103631 0.0113827 0
8.17484e-05 0.004832 0
0 0 0
-0.00176977 2.92131e-06 0
-0.00184011 -4.39502e-05 0
-0.0027852 -0.00412689 0
-0.00600711 -0.00505324 0
-0.00233242 -0.00483201 0
0 0 0
0.000574125 -0.00530863 0
-0.00147865 -0.00276393 0
-0.00147008 -0.00324831 0
0.00228706 0.00190289 0
0.000226407 0.00212423 0
-0.00394871 -0.000252461 0
-0.00125492 -0.00152816 0
-0.000502727 0.00166916 0
-0.00665719 0.00523097 0
-0.00777727 0.00611033 0
-0.00440531 0.00166984 0
-0.00557665 -0.00458773 0
-0.0076082 -0.0311593 0
-0.00146475 -0.0099842 0
-0.0061812 0.0212153 0
-0.00708846 0.0229618 0
0.00600297 0.00229573 0
0.0159383 -0.000285861 0
0.0155674 0.00432459 0
0.0120866 -0.000479384 0
0.0153719 -0.000921443 0
0.0170436 -0.00105462 0
0.00960766 -0.00143566 0
0.00641286 -0.00645288 0
0.0106565 -0.00429102 0
0.00941307 0.00154521 0
0 0 0
0.0040524 -0.00687701 0
0.00522844 -0.000875286 0
0.00307651 0.00835265 0
0 0 0
0.00463967 -0.00549713 0
0.00638764 0.00202278 0
0.00356341 0.00933142 0
0.00635898 0.000116586 0
0.0120331 0.00135791 0
0.00788372 0.000265923 0
-0.00695285 -0.022195 0
-0.00547797 -0.0219063 0
0.0234803 0.0149287 0
0.0516135 0.0034325 0
0.0541655 -0.00229874 0
0.0489377 -0.00188533 0
0.0520539 0.00337724 0
0.0561795 -0.00144104 0
0.0523866 -0.00146544 0
0.0513483 3.97741e-05 0
0.0531399 0.00121742 0
0.0524947 -0.00199047 0
0.0436203 -0.0037625 0
0.0436192 0.00348138 0
0.0508995 0.00199066 0
0.0426739 -0.00403706 0
0.0399861 0.000814184 0
0.0429386 0.00364664 0
0.0520209 0.00146506 0
0.0426791 -0.00447694 0
0.041411 0.00258829 0
0.0484127 0.00403749 0
0.0528915 -0.00172812 0
0.0475694 -0.000830723 0
0.0526741 0.00378652 0
0.0518284 -0.00367142 0
0.0281568 -0.0174973 0


