# vtk DataFile Version 4.0
SiwiRVisFile
ASCII
DATASET STRUCTURED_POINTS
DIMENSIONS 50 50 1
ORIGIN 0 0 0
SPACING 1 1 1
POINT_DATA 2500


SCALARS flags double 1
LOOKUP_TABLE default
1
1
1
1
1
1
1
1
1
1
1
1
1
1
1
1
1
1
1
1
1
1
1
1
1
1
1
1
1
1
1
1
1
1
1
1
1
1
1
1
1
1
1
1
1
1
1
1
1
1
1
1
1
1
1
1
1
1
1
1
1
1
1
1
1
1
1
1
1
1
1
1
1
1
1
1
1
1
1
1
1
1
1
1
1
1
1
1
1
1
1
1
1
1
1
1
1
1
1
1
1
1
1
1
1
1
1
1
1
1
1
1
1
1
1
1
1
1
1
1
1
1
1
1
1
1
1
1
1
1
1
1
1
1
1
1
1
1
1
1
1
1
1
1
1
1
1
1
1
1
1
1
1
1
1
1
1
1
1
1
1
1
1
1
1
1
1
1
1
1
1
1
1
1
1
1
1
1
1
1
1
1
1
1
1
1
1
1
1
1
1
1
1
1
1
1
1
1
1
1
1
1
1
1
1
1
1
1
1
1
1
1
1
1
1
1
1
1
1
1
1
1
1
1
1
1
1
1
1
1
1
1
1
1
1
1
1
1
1
1
1
1
1
1
1
1
1
1
1
1
1
1
1
1
1
1
1
1
1
1
1
1
1
1
1
1
1
1
1
1
1
1
1
1
1
1
1
1
1
1
1
1
1
1
1
1
1
1
1
1
1
1
1
1
1
1
1
1
1
1
1
1
1
1
1
1
1
1
1
1
1
1
1
1
1
1
1
1
1
1
1
1
1
1
1
1
1
1
1
1
1
1
1
1
1
1
1
1
1
1
1
1
1
1
1
1
1
1
1
1
1
1
1
1
1
1
1
1
1
1
1
1
1
1
1
1
1
1
1
1
1
1
1
1
1
1
1
1
1
1
1
1
1
1
1
1
1
1
1
1
1
1
1
1
1
1
1
1
1
1
1
1
1
1
1
1
1
1
1
1
1
1
1
1
1
1
1
1
1
1
1
1
1
1
1
1
1
1
1
1
1
1
1
1
1
1
1
1
1
1
1
1
1
1
1
1
1
1
1
1
1
1
1
1
1
1
1
1
1
1
1
1
1
1
1
1
1
1
1
1
1
1
1
1
1
1
1
1
1
1
1
1
1
1
1
1
1
1
1
1
1
1
1
1
1
1
1
1
1
1
1
1
1
1
1
1
1
1
1
1
1
1
1
1
1
1
1
1
1
1
1
1
1
1
1
1
1
1
1
1
1
1
1
1
1
1
1
1
1
1
1
1
1
1
1
1
1
1
1
1
1
1
1
1
1
1
1
1
1
1
1
1
1
1
1
1
1
1
1
1
1
1
1
1
1
1
1
1
1
1
1
1
1
1
1
1
1
1
1
1
1
1
1
1
1
1
1
1
1
1
1
1
1
1
1
1
1
1
1
1
1
1
1
1
1
1
1
1
1
1
1
1
1
1
1
1
1
1
1
1
1
1
1
1
1
1
1
1
1
1
1
1
1
1
1
1
1
1
1
1
1
1
1
1
1
1
1
1
1
1
1
1
1
1
1
1
1
1
1
1
1
1
1
1
1
1
1
1
1
1
1
1
1
1
1
1
1
1
1
1
1
1
1
1
1
1
1
1
1
1
1
1
1
1
1
1
1
1
1
1
1
1
1
1
1
1
1
1
1
1
1
1
1
1
1
1
1
1
1
1
1
1
1
1
1
1
1
1
1
1
1
1
1
1
1
1
1
1
1
1
1
1
1
1
1
1
1
1
1
1
1
1
1
1
1
1
1
1
1
1
1
1
1
1
1
1
1
1
1
1
1
1
1
1
1
1
1
1
1
1
1
1
1
1
1
1
1
1
1
1
1
1
1
1
1
1
1
1
1
1
1
1
1
1
1
1
1
1
1
1
1
1
1
1
1
1
1
1
1
1
1
1
1
1
1
1
1
1
1
1
1
1
1
1
1
1
1
1
1
1
1
1
1
1
1
1
1
1
1
1
1
1
1
1
1
1
1
1
1
1
1
1
1
1
1
1
1
1
1
1
1
1
1
1
1
1
1
1
1
1
1
1
1
1
1
1
1
1
1
1
1
1
1
1
1
1
1
1
1
1
1
1
1
1
1
1
1
1
1
1
1
1
1
1
1
1
1
1
1
1
1
1
1
1
1
1
1
1
1
1
1
1
1
1
1
1
1
1
1
1
1
1
1
1
1
1
1
1
1
1
1
1
1
1
1
1
1
1
1
1
1
1
1
1
1
1
1
1
1
1
1
1
1
1
1
1
1
1
1
1
1
1
1
1
1
1
1
1
1
1
1
1
1
1
1
1
1
1
1
1
1
1
1
1
1
1
1
1
1
1
1
1
1
1
1
1
1
1
1
1
1
1
1
1
1
1
1
1
1
1
1
1
1
1
1
1
1
1
1
1
1
1
1
1
1
1
1
1
1
1
1
1
1
1
1
1
1
1
1
1
1
1
1
1
1
1
1
1
1
1
1
1
1
1
1
1
1
1
1
1
1
1
1
1
1
1
1
1
1
1
1
1
1
1
1
1
1
1
1
1
1
1
1
1
1
1
1
1
1
1
1
1
1
1
1
1
1
1
1
1
1
1
1
1
1
1
1
1
1
1
1
1
1
1
1
1
1
1
1
1
1
1
1
1
1
1
1
1
1
1
1
1
1
1
1
1
1
1
1
1
1
1
1
1
1
1
1
1
1
1
1
1
1
1
1
1
1
1
1
1
1
1
1
1
1
1
1
1
1
1
1
1
1
1
1
1
1
1
1
1
1
1
1
1
1
1
1
1
1
1
1
1
1
1
1
1
1
1
1
1
1
1
1
1
1
1
1
1
1
1
1
1
1
1
1
1
1
1
1
1
1
1
1
1
1
1
1
1
1
1
1
1
1
1
1
1
1
1
1
1
1
1
1
1
1
1
1
1
1
1
1
1
1
1
1
1
1
1
1
1
1
1
1
1
1
1
1
1
1
1
1
1
1
1
1
1
1
1
1
1
1
1
1
1
1
1
1
1
1
1
1
1
1
1
1
1
1
1
1
1
1
1
1
1
1
1
1
1
1
1
1
1
1
1
1
1
1
1
1
1
1
1
1
1
1
1
1
1
1
1
1
1
1
1
1
1
1
1
1
1
1
1
1
1
1
1
1
1
1
1
1
1
1
1
1
1
1
1
1
1
1
1
1
1
1
1
1
1
1
1
1
1
1
1
1
1
1
1
1
1
1
1
1
1
1
1
1
1
1
1
1
1
1
1
1
1
1
1
1
1
1
1
1
1
1
1
1
1
1
1
1
1
1
1
1
1
1
1
1
1
1
1
1
1
1
1
1
1
1
1
1
1
1
1
1
1
1
1
1
1
1
1
1
1
1
1
1
1
1
1
1
1
1
1
1
1
1
1
1
1
1
1
1
1
1
1
1
1
1
1
1
1
1
1
1
1
1
1
1
1
1
1
1
1
1
1
1
1
1
1
1
1
1
1
1
1
1
1
1
1
1
1
1
1
1
1
1
1
1
1
1
1
1
1
1
1
1
1
1
1
1
1
1
1
1
1
1
1
1
1
1
1
1
1
1
1
1
1
1
1
1
1
1
1
1
1
1
1
1
1
1
1
1
1
1
1
1
1
1
1
1
1
1
1
1
1
1
1
1
1
1
1
1
1
1
1
1
1
1
1
1
1
1
1
1
1
1
1
1
1
1
1
1
1
1
1
1
1
1
1
1
1
1
1
1
1
1
1
1
1
1
1
1
1
1
1
1
1
1
1
1
1
1
1
1
1
1
1
1
1
1
1
1
1
1
1
1
1
1
1
1
1
1
1
1
1
1
1
1
1
1
1
1
1
1
1
1
1
1
1
1
1
1
1
1
1
1
1
1
1
1
1
1
1
1
1
1
1
1
1
1
1
1
1
1
1
1
1
1
1
1
1
1
1
1
1
1
1
1
1
1
1
1
1
1
1
1
1
1
1
1
1
1
1
1
1
1
1
1
1
1
1
1
1
1
1
1
1
1
1
1
1
1
1
1
1
1
1
1
1
1
1
1
1
1
1
1
1
1
1
1
1
1
1
1
1
1
1
1
1
1
1
1
1
1
1
1
1
1
1
1
1
1
1
1
1
1
1
1
1
1
1
1
1
1
1
1
1
1
1
1
1
1
1
1
1
1
1
1
1
1
1
1
1
1
1
1
1
1
1
1
1
1
1
1
1
1
1
1
1
1
1
1
1
1
1
1
1
1
1
1
1
1
1
1
1
1
1
1
1
1
1
1
1
1
1
1
1
1
1
1
1
1
1
1
1
1
1
1
1
1
1
1
1
1
1
1
1
1
1
1
1
1
1
1
1
1
1
1
1
1
1
1
1
1
1
1
1
1
1
1
1
1
1
1
1
1
1
1
1
1
1
1
1
1
1
1
1
1
1
1
1
1
1
1
1
1
1
1
1
1
1
1
1
1
1
1
1
1
1
1
1
1
1
1
1
1
1
1
1
1
1
1
1
1
1
1
1
1
1
1
1
1
1
1
1
1
1
1
1
1
1
1
1
1
1
1
1
1
1
1
1
1
1
1
1
1
1
1
1
1
1
1
1
1
1
1
1
1
1
1
1
1
1
1
1
1
1
1
1
1
1
1
1
1
1
1
1
1
1
1
1
1
1
1
1
1
1
1
1
1
1
1
1
1
1
1
1
1
1
1
1
1
1
1
1
1
1
1
1
1
1
1
1
1
1
1
1
1
1
1
1
1
1
1
1
1
1
1
1
1
1
1
1
1
1
1
1
1
1
1
1
1
1
1
1
1
1
1
1
1
1
1
1
1
1
1
1
1
1
1
1
1
1
1
1
1
1
1
1
1
1
1
1
1
1
1
1
1
1
1
1
1
1
1
1
1
1
1
1
1
1
1
1
1
1
1
1
1
1
1
1
1
1
1
1
1
1
1
1
1
1
1
1
1
1
1
1
1
1
1
1
1
1
1
1
1
1
1
1
1
1
1
1
1
1
1
1
1
1
1
1
1
1
1
1
1
1
1
1
1
1
1
1
1
1
1
1
1
1
1
1
1
1
1
1
1
1
1
1
1
1
1
1
1
1
1
1
1
1
1
1
1
1
1
1
1
1
1
1
1
1
1
1
1
1
1
1
1
1
1
1
1
1
1
1
1
1
1
1
1
1
1
1
1
1
1
1
1
1
1
1
1
1
1
1
1
1
1
1
1
1
1
1
1
1
1
1
1
1
1
1
1
1
1
1
1
1
1
1
1
1
1
1
1
1
1
1
1
1
1
1
1
1
1
1
1
1
1
1
1
1
1
1
1
1
1
1
1
1
1
1
1
1
1
1
1
1
1
1
1
1
1
1
1
1
1
1
1
1
1
1
1
1
1
1
1
1
1
1
1
1
1
1
1
1
1
1
1
1
1
1
1
1
1
1
1
1
1
1
1
1
1
1
1
1
1
1
1
1
1
1
1
1
1
1
1
1
1
1
1
1
1
1
1
1
1
1
1
1
1
1
1
1
1
1
1
1
1
1
1
1
1
1
1
1
1
1
1
1
1
1
1
1
1
1
1
1
1
1
1
1
1
1
1
1
1
1
1
1
1
1
1
1
1
1
1
1
1
1
1
1
1
1
1
1
1
1
1
1
1
1
1
1
1
1
1
1
1
1
1
1
1
1
1
1
1
1
1
1

SCALARS density double 1
LOOKUP_TABLE default
0.999973
0.999973
0.999973
0.999973
0.999973
0.999973
0.999973
0.999973
0.999973
0.999973
0.999973
0.999973
0.999973
0.999973
0.999973
0.999973
0.999973
0.999973
0.999973
0.999973
0.999973
0.999973
0.999973
0.999973
0.999973
0.999973
0.999973
0.999973
0.999973
0.999973
0.999973
0.999973
0.999973
0.999973
0.999973
0.999973
0.999973
0.999973
0.999973
0.999973
0.999973
0.999973
0.999973
0.999973
0.999973
0.999973
0.999973
0.999973
0.999973
0.999973
0.999973
0.999973
0.999973
0.999973
0.999973
0.999973
0.999973
0.999973
0.999973
0.999973
0.999973
0.999973
0.999973
0.999973
0.999973
0.999973
0.999973
0.999973
0.999973
0.999973
0.999973
0.999973
0.999973
0.999973
0.999973
0.999973
0.999973
0.999973
0.999973
0.999973
0.999973
0.999973
0.999973
0.999973
0.999973
0.999973
0.999973
0.999973
0.999973
0.999973
0.999973
0.999973
0.999973
0.999973
0.999973
0.999973
0.999973
0.999973
0.999973
0.999973
0.999973
0.999973
0.999973
0.999973
0.999973
0.999973
0.999973
0.999973
0.999973
0.999973
0.999973
0.999973
0.999973
0.999973
0.999973
0.999973
0.999973
0.999973
0.999973
0.999973
0.999973
0.999973
0.999973
0.999973
0.999973
0.999973
0.999973
0.999973
0.999973
0.999973
0.999973
0.999973
0.999973
0.999973
0.999973
0.999973
0.999973
0.999973
0.999973
0.999973
0.999973
0.999973
0.999973
0.999973
0.999973
0.999973
0.999973
0.999973
0.999973
0.999973
0.999973
0.999973
0.999973
0.999973
0.999973
0.999973
0.999973
0.999973
0.999973
0.999973
0.999973
0.999973
0.999973
0.999973
0.999973
0.999973
0.999973
0.999973
0.999973
0.999973
0.999973
0.999973
0.999973
0.999973
0.999973
0.999973
0.999973
0.999973
0.999973
0.999973
0.999973
0.999973
0.999973
0.999973
0.999973
0.999973
0.999973
0.999973
0.999973
0.999973
0.999973
0.999973
0.999973
0.999973
0.999973
0.999973
0.999973
0.999973
0.999973
0.999973
0.999973
0.999973
0.999973
0.999973
0.999973
0.999973
0.999973
0.999973
0.999973
0.999973
0.999973
0.999973
0.999973
0.999973
0.999973
0.999973
0.999973
0.999973
0.999973
0.999973
0.999973
0.999973
0.999973
0.999973
0.999973
0.999973
0.999973
0.999973
0.999973
0.999973
0.999973
0.999973
0.999973
0.999973
0.999973
0.999973
0.999973
0.999973
0.999973
0.999973
0.999973
0.999973
0.999973
0.999973
0.999973
0.999973
0.999973
0.999973
0.999973
0.999973
0.999973
0.999973
0.999973
0.999973
0.999973
0.999973
0.999973
0.999973
0.999973
0.999973
0.999973
0.999973
0.999973
0.999973
0.999973
0.999973
0.999973
0.999973
0.999973
0.999973
0.999973
0.999973
0.999973
0.999973
0.999973
0.999973
0.999973
0.999973
0.999973
0.999973
0.999973
0.999973
0.999973
0.999973
0.999973
0.999973
0.999973
0.999973
0.999973
0.999973
0.999973
0.999973
0.999973
0.999973
0.999973
0.999973
0.999973
0.999973
0.999973
0.999973
0.999973
0.999973
0.999973
0.999973
0.999973
0.999973
0.999973
0.999973
0.999973
0.999973
0.999973
0.999973
0.999973
0.999973
0.999973
0.999973
0.999973
0.999973
0.999973
0.999973
0.999973
0.999973
0.999973
0.999973
0.999973
0.999973
0.999973
0.999973
0.999973
0.999973
0.999973
0.999973
0.999973
0.999973
0.999973
0.999973
0.999973
0.999973
0.999973
0.999973
0.999973
0.999973
0.999973
0.999973
0.999973
0.999973
0.999973
0.999973
0.999973
0.999973
0.999973
0.999973
0.999973
0.999973
0.999973
0.999973
0.999973
0.999973
0.999973
0.999973
0.999973
0.999973
0.999973
0.999973
0.999973
0.999973
0.999973
0.999973
0.999973
0.999973
0.999973
0.999973
0.999973
0.999973
0.999973
0.999973
0.999973
0.999973
0.999973
0.999973
0.999973
0.999973
0.999973
0.999973
0.999973
0.999973
0.999973
0.999973
0.999973
0.999973
0.999973
0.999973
0.999973
0.999973
0.999973
0.999973
0.999973
0.999973
0.999973
0.999973
0.999973
0.999973
0.999973
0.999973
0.999973
0.999973
0.999973
0.999973
0.999973
0.999973
0.999973
0.999973
0.999973
0.999973
0.999973
0.999973
0.999973
0.999973
0.999973
0.999973
0.999973
0.999973
0.999973
0.999973
0.999973
0.999973
0.999973
0.999973
0.999973
0.999973
0.999973
0.999973
0.999973
0.999973
0.999973
0.999973
0.999973
0.999973
0.999973
0.999973
0.999973
0.999973
0.999973
0.999973
0.999973
0.999973
0.999973
0.999973
0.999973
0.999973
0.999973
0.999973
0.999973
0.999973
0.999973
0.999973
0.999973
0.999973
0.999973
0.999973
0.999973
0.999973
0.999973
0.999973
0.999973
0.999973
0.999973
0.999973
0.999973
0.999973
0.999973
0.999973
0.999973
0.999973
0.999973
0.999973
0.999973
0.999973
0.999973
0.999973
0.999973
0.999973
0.999973
0.999973
0.999973
0.999973
0.999973
0.999973
0.999973
0.999973
0.999973
0.999973
0.999973
0.999973
0.999973
0.999973
0.999973
0.999973
0.999973
0.999973
0.999973
0.999973
0.999973
0.999973
0.999973
0.999973
0.999973
0.999973
0.999973
0.999973
0.999973
0.999973
0.999973
0.999973
0.999973
0.999973
0.999973
0.999973
0.999973
0.999973
0.999973
0.999973
0.999973
0.999973
0.999973
0.999973
0.999973
0.999973
0.999973
0.999973
0.999973
0.999973
0.999973
0.999973
0.999973
0.999973
0.999973
0.999973
0.999973
0.999973
0.999973
0.999973
0.999973
0.999973
0.999973
0.999973
0.999973
0.999973
0.999973
0.999973
0.999973
0.999973
0.999973
0.999973
0.999973
0.999973
0.999973
0.999973
0.999973
0.999973
0.999973
0.999973
0.999973
0.999973
0.999973
0.999973
0.999973
0.999973
0.999973
0.999973
0.999973
0.999973
0.999973
0.999973
0.999973
0.999973
0.999973
0.999973
0.999973
0.999973
0.999973
0.999973
0.999973
0.999973
0.999973
0.999973
0.999973
0.999973
0.999973
0.999973
0.999973
0.999973
0.999973
0.999973
0.999973
0.999973
0.999973
0.999973
0.999973
0.999973
0.999973
0.999973
0.999973
0.999973
0.999973
0.999973
0.999973
0.999973
0.999973
0.999973
0.999973
0.999973
0.999973
0.999973
0.999973
0.999973
0.999973
0.999973
0.999973
0.999973
0.999973
0.999973
0.999973
0.999973
0.999973
0.999973
0.999973
0.999973
0.999973
0.999973
0.999973
0.999973
0.999973
0.999973
0.999973
0.999973
0.999973
0.999973
0.999973
0.999973
0.999973
0.999973
0.999973
0.999973
0.999973
0.999973
0.999973
0.999973
0.999973
0.999973
0.999973
0.999973
0.999973
0.999973
0.999973
0.999973
0.999973
0.999973
0.999973
0.999973
0.999973
0.999973
0.999973
0.999973
0.999973
0.999973
0.999973
0.999973
0.999973
0.999973
0.999973
0.999973
0.999973
0.999973
0.999973
0.999973
0.999973
0.999973
0.999973
0.999973
0.999973
0.999973
0.999973
0.999973
0.999973
0.999973
0.999973
0.999973
0.999973
0.999973
0.999973
0.999973
0.999973
0.999973
0.999973
0.999973
0.999973
0.999973
0.999973
0.999973
0.999973
0.999973
0.999973
0.999973
0.999973
0.999973
0.999973
0.999973
0.999973
0.999973
0.999973
0.999973
0.999973
0.999973
0.999973
0.999973
0.999973
0.999973
0.999973
0.999973
0.999973
0.999973
0.999973
0.999973
0.999973
0.999973
0.999973
0.999973
0.999973
0.999973
0.999973
0.999973
0.999973
0.999973
0.999973
0.999973
0.999973
0.999973
0.999973
0.999973
0.999973
0.999973
0.999973
0.999973
0.999973
0.999973
0.999973
0.999973
0.999973
0.999973
0.999974
0.999973
0.999973
0.999974
0.999974
0.999974
0.999974
0.999973
0.999973
0.999973
0.999973
0.999973
0.999973
0.999973
0.999973
0.999973
0.999973
0.999973
0.999973
0.999973
0.999972
0.999972
0.999973
0.999973
0.999973
0.999973
0.999973
0.999974
0.999974
0.999974
0.999974
0.999974
0.999974
0.999974
0.999974
0.999974
0.999974
0.999973
0.999973
0.999973
0.999973
0.999973
0.999973
0.999973
0.999973
0.999973
0.999973
0.999973
0.999973
0.999972
0.999973
0.999969
0.999973
0.999973
0.999973
0.999973
0.999973
0.999973
0.999974
0.999974
0.999974
0.999974
0.999974
0.999973
0.999973
0.999973
0.999973
0.999973
0.999972
0.999971
0.999971
0.999972
0.999972
0.999972
0.999972
0.999974
0.999975
0.999974
0.999974
0.999975
0.999975
0.999974
0.999974
0.999973
0.999973
0.999973
0.999972
0.999972
0.999972
0.999972
0.999972
0.999972
0.999972
0.999972
0.999972
0.999972
0.999972
0.999973
0.999975
0.999971
0.999973
0.999978
0.999972
0.999972
0.999972
0.999972
0.999972
0.999972
0.999972
0.999972
0.999972
0.999973
0.999973
0.999974
0.999974
0.999975
0.999975
0.999973
0.999974
0.999975
0.999972
0.999972
0.999976
0.999973
0.999972
0.999974
0.999973
0.99997
0.999974
0.999974
0.99997
0.999971
0.999972
0.999971
0.999971
0.999971
0.999971
0.999972
0.999972
0.999973
0.999973
0.999974
0.999974
0.999974
0.999974
0.999974
0.999974
0.999974
0.999976
0.999973
0.999969
0.999973
0.999971
0.999974
0.999974
0.999974
0.999974
0.999973
0.999973
0.999972
0.999972
0.999972
0.999971
0.999973
0.999972
0.99997
0.999979
0.999977
0.999965
0.999978
0.999991
0.999974
0.999967
0.999984
0.999983
0.999962
0.999961
0.999978
0.999971
0.999954
0.999968
0.999981
0.999969
0.999968
0.999977
0.999976
0.999975
0.999977
0.999976
0.999976
0.999976
0.999976
0.999975
0.999975
0.999975
0.999974
0.999974
0.999975
0.999964
0.999977
0.999977
0.999971
0.999977
0.999973
0.999974
0.999975
0.999975
0.999975
0.999976
0.999974
0.999974
0.999977
0.999969
0.999971
0.999986
0.999963
0.999949
0.999994
0.999986
0.999941
0.999976
1
0.999964
0.999968
0.999982
0.999963
0.999977
0.999981
0.999946
0.999971
1.00001
0.999961
0.999955
0.999998
0.999984
0.999961
0.999976
0.999977
0.999969
0.999971
0.99997
0.999968
0.999969
0.999968
0.999969
0.999969
0.999971
0.999973
0.999965
0.999975
0.999972
0.999968
0.999975
0.999974
0.999972
0.999972
0.999973
0.999971
0.999975
0.999977
0.999966
0.999986
0.999995
0.999941
0.999971
1.00004
0.999947
0.999902
1.00003
1
0.999888
0.999969
1.00003
0.999935
0.999923
1.00002
1.00001
0.999917
0.999978
1.00006
0.999944
0.999919
1.00004
0.999995
0.999905
0.999973
1
0.999947
0.999957
0.999976
0.999966
0.999969
0.999973
0.999972
0.999974
0.999974
0.999975
0.999968
0.999994
0.99997
0.999962
0.999986
0.999968
0.999975
0.999972
0.999971
0.999978
0.999969
0.999962
0.999996
0.999964
0.999913
1.00003
1.00004
0.999855
0.999949
1.00013
0.999927
0.999852
1.00008
1.00002
0.999862
0.999978
1.00001
0.999954
0.999992
0.999941
0.999968
1.00008
0.999924
0.999867
1.00009
1.00001
0.999825
0.999998
1.00009
0.999914
0.999922
1.00004
0.999986
0.999957
0.999989
0.999983
0.999974
0.99998
0.999977
0.999973
0.999969
0.99997
0.999972
0.99994
0.999963
0.999964
0.99997
0.999982
0.999962
0.999977
0.999999
0.99992
0.999948
1.00009
0.999918
0.999792
1.0001
1.0001
0.999749
0.999934
1.0002
0.999899
0.999818
1.00016
1.00003
0.999789
1.00003
1.00011
0.999838
0.999914
1.00015
0.999918
0.999792
1.00012
1.00004
0.999759
1.00001
1.00019
0.999858
0.999865
1.00015
1.00002
0.99986
0.999997
1.00002
0.999943
0.999965
0.999978
0.999964
0.999968
0.999991
0.999963
1.00001
0.999922
0.999936
0.999961
0.999939
0.999984
0.999964
0.9999
1.00004
1.00006
0.999778
0.999937
1.00026
0.9999
0.999709
1.00018
1.00013
0.999707
0.999951
1.00024
0.999867
0.99978
1.00014
1.00006
0.999864
0.99994
1.00001
1.00007
0.999894
0.999818
1.00016
1.00007
0.999721
0.999993
1.00022
0.999826
0.999777
1.00021
1.00003
0.9997
1
1.00015
0.999882
0.999908
1.00004
0.999981
0.99996
1.00001
0.999995
1.00001
1.00003
0.999898
0.999884
0.999968
0.999915
0.999943
1.0001
0.999915
0.999764
1.0002
1.00017
0.999643
0.999949
1.00033
0.999864
0.999751
1.00022
1.00009
0.999702
0.999937
1.00022
0.999837
0.99978
1.00024
0.999962
0.999754
1.00018
0.999993
0.999718
1.00015
1.0001
0.999742
1.00001
1.00021
0.999858
0.999744
1.00017
1.00006
0.999651
1
1.00027
0.999798
0.999774
1.00017
1.00003
0.999864
0.999997
1.00003
0.999963
1.00007
1.00002
0.999868
0.999737
0.99992
0.999968
0.999743
0.999954
1.00032
0.99981
0.999638
1.00028
1.00011
0.999631
0.999996
1.00024
0.999784
0.999796
1.00015
1.00008
0.999776
0.99989
1.00023
0.99994
0.999696
1.00014
1.0002
0.999746
0.99981
1.00024
1
0.999736
1.00006
1.00015
0.999871
0.999831
1.00014
1.00014
0.999744
0.999964
1.00027
0.999843
0.99971
1.00027
1.0001
0.999656
0.999981
1.00018
0.999971
1.00001
1.00019
1.00006
0.999773
0.99961
0.99954
0.999968
0.99992
0.999415
0.999913
1.00033
0.999739
0.999726
1.00023
0.999976
0.99969
1.00001
1.00014
0.999871
0.999879
1.00009
1.00006
0.999881
0.999919
1.00018
0.999823
0.9999
1.00015
0.999805
1.00003
1.00012
0.999792
1.00003
1.00005
0.999887
0.999873
1.00005
1.00004
0.999814
0.99995
1.0002
0.999949
0.999747
1.00018
1.00015
0.999651
1.00004
1.00045
1.00002
0.999983
1.00037
1.00027
1.00017
0.99941
0.999915
0.999224
0.999197
0.999963
0.999822
0.999383
0.999939
1.00017
0.99977
0.999885
1.00017
1.00003
0.999882
0.99998
1.00009
0.999878
0.999937
1.00007
1.00006
0.999825
0.999842
1.00036
0.999859
0.99955
1.00039
1.0001
0.999604
1.00009
1.0001
0.999889
0.999878
0.999996
1.00005
0.999854
0.999973
1.00006
0.999883
0.999795
1.00006
1.00012
0.999795
1.00002
1.00046
1.00008
0.999978
1.00064
1.00059
0.999991
1.00043
0.998888
0.999683
0.999477
0.99889
0.998927
0.999659
0.999519
0.99944
0.999841
1.00004
0.999858
0.99991
1.00002
1.00002
0.999862
0.999966
1.00015
0.999702
0.999919
1.00003
1.00002
0.999977
0.999912
1.00002
0.999992
0.999937
0.999943
1.00003
0.99995
0.999927
0.999928
1.00001
1.00024
0.999806
0.999986
1.0001
0.999901
0.999921
1.00007
1.00005
0.999851
1.00009
1.00041
1.0003
1.00022
1.00084
1.0008
1.00029
1.00018
1.0008
0.999338
0.998051
0.998286
0.998995
0.998325
0.998422
0.999034
0.999122
0.999255
0.999518
0.99989
0.999707
0.999868
1.00012
1.00003
0.999702
1.00003
1.00024
0.999752
0.999959
1.00011
1.00002
0.999705
0.999998
1.00038
0.999585
0.999923
1.00023
0.999949
0.999843
0.999968
1.00019
0.999705
0.999904
1.00024
0.999886
0.999795
1.00009
1.00018
0.999953
1.00037
1.00061
1.0006
1.00067
1.00124
1.00123
1.00065
1.00126
1.00149
1.00041
0.998287
0.997726
0.997504
0.998267
0.997889
0.997787
0.997985
0.998523
0.998802
0.998953
0.999656
1.00002
0.999524
0.999853
1.00014
1.0002
0.999743
1.00006
1.00018
0.999752
0.999985
0.999906
1.00014
0.999974
0.999728
1.00022
0.999969
0.999808
1.00003
0.999939
1.00018
0.999775
0.999851
1.00022
0.999723
0.999758
1.0001
1.00035
0.999851
1.0002
1.00083
1.00082
1.00103
1.00155
1.00163
1.00139
1.00121
1.00176
1.00148
1.00125
0.996216
0.998549
0.997625
0.997015
0.997263
0.997842
0.997117
0.997587
0.998262
0.998353
0.998454
0.999442
0.999992
0.999467
0.999929
0.999918
1.00005
0.999667
1.00001
1.00024
0.999649
1
1.00021
0.999926
0.999686
1.00022
1.00005
0.999739
0.999907
1.0003
0.999722
0.999918
1.00031
0.999851
0.999992
1.00005
1.00042
0.999851
1.00035
1.00124
1.00115
1.00118
1.00177
1.00207
1.00137
1.00181
1.00221
1.00158
1.00073
1.00277
0.99716
0.99771
0.996715
0.99721
0.997731
0.99752
0.997016
0.996492
0.997101
0.997683
0.997989
0.998267
0.999358
0.999716
0.999396
0.999978
1.00004
1.00024
0.999645
1.00003
1.00022
0.999941
0.99969
0.999996
1.00027
0.999695
0.999931
1.00023
1.00003
0.999746
0.999888
1.0003
0.999688
0.999844
1
1.00042
1.00007
1.00044
1.00132
1.00145
1.00159
1.00215
1.00257
1.00203
1.00182
1.00162
1.00199
1.00242
1.00178
1.00196
0.998049
0.996884
0.997327
0.999249
0.997583
0.997095
0.998127
0.997917
0.996628
0.997271
0.997518
0.997982
0.99801
0.999586
0.999868
0.999546
0.99987
0.999977
1.00025
0.999647
1.00008
1.00002
0.99976
1.00012
1.00016
0.999821
0.999785
1.00018
0.999952
0.999812
1.00029
0.999692
0.999899
1.00007
1.00029
1.00001
1.00014
1.0015
1.00137
1.0017
1.00202
1.0025
1.00145
1.00137
1.00234
1.00195
1.00066
1.00226
1.00271
1.00143
0.996593
0.997565
0.998182
0.998365
0.997504
0.99813
0.998302
0.997655
0.997389
0.996587
0.997075
0.997201
0.998099
0.997675
0.999363
0.999677
0.999454
0.999833
1.00002
1.00007
0.999706
0.999931
1.00036
0.999913
0.999631
1.00026
1.00008
0.999597
0.99997
1.00024
0.999873
0.999877
1.00012
1.00042
1.00017
1.00031
1.00178
1.00134
1.00208
1.00223
1.00267
1.00206
1.00202
1.00169
1.00173
1.00228
1.00191
1.00173
1.00217
1.00326
0.996846
0.998367
0.997097
0.995864
0.997735
0.998536
0.997548
0.996835
0.998355
0.997924
0.996268
0.996908
0.997206
0.998016
0.997993
0.999687
0.999938
0.999575
0.999906
1.00017
1.00014
0.999814
0.999954
0.999821
0.999925
1.00001
1.00014
0.999968
1.00012
0.999849
0.999741
1.00001
1.00028
0.99987
1.00003
1.00148
1.00146
1.00204
1.00241
1.0031
1.00177
1.00156
1.00289
1.00233
1.00169
1.00213
1.00395
1.00283
1.00169
1.00306
0.998014
0.99716
0.99629
0.998534
0.997265
0.996746
0.998035
0.99909
0.997564
0.998037
0.997622
0.996975
0.997049
0.997621
0.998136
0.99808
0.999627
0.999958
0.999601
0.999718
1.00016
1.00013
0.999607
1.00005
1.00043
0.999584
0.99982
1.00031
0.999854
0.999746
1.00013
1.00028
0.999908
1.00011
1.00141
1.00138
1.00171
1.00239
1.00253
1.00203
1.00185
1.00239
1.00112
1.00177
1.00331
1.0024
1.00128
1.00342
1.0029
1.00186
0.997918
0.996395
0.996822
0.998498
0.996584
0.995967
0.998516
0.997864
0.997241
0.996583
0.998978
0.997014
0.996096
0.996657
0.997356
0.99831
0.998367
0.999712
1.00001
0.999719
0.999727
1.00013
1.00012
1.0001
0.999898
0.999999
0.999843
0.999864
0.999789
1.00015
1.00023
0.99988
1.00001
1.00125
1.00127
1.00201
1.00279
1.00339
1.00277
1.00121
1.00334
1.00275
1.00228
1.00166
1.00392
1.0033
1.00182
1.00285
1.00366
1.00232
0.996309
0.999331
0.998379
0.995919
0.99743
0.998217
0.996585
0.996134
0.998487
0.999095
0.99647
0.997682
0.997979
0.996776
0.99727
0.997974
0.998766
0.998943
0.99991
1.0003
0.999696
0.999804
1.00012
0.999829
0.999447
1.00044
1.00019
0.999816
1.00007
1.00025
0.999631
0.999837
1.00075
1.0008
1.00148
1.00223
1.00288
1.00186
1.00221
1.00354
1.00113
1.0015
1.00387
1.00323
1.00178
1.00251
1.00443
1.00165
1.00105
1.00385
0.995703
0.998034
0.996544
0.995671
0.997049
0.997292
0.996673
0.996002
0.998037
0.99737
0.997084
0.997355
0.99802
0.996672
0.996137
0.997023
0.998162
0.99885
0.999001
0.999767
1.00023
0.999924
0.999771
0.999997
1.00018
0.999839
0.999891
1.00008
1.00004
0.999681
0.999993
1.0007
1.00082
1.00137
1.00249
1.00344
1.00317
1.00223
1.00273
1.00288
1.00253
1.00205
1.00373
1.00297
1.00287
1.00279
1.00403
1.00344
1.00228
1.00411
0.999249
0.994877
0.996286
0.998129
0.998
0.995097
0.998757
0.99785
0.996467
0.997213
0.999057
0.998276
0.995694
0.997618
0.997502
0.996671
0.997589
0.998868
0.999574
0.999373
0.999961
1.00018
0.999932
1.00006
1.00045
0.999493
0.999795
1.00005
0.999793
0.99983
1.00041
1.00022
1.00071
1.00196
1.00307
1.00258
1.00236
1.00415
1.00196
1.001
1.00298
1.00353
1.00203
1.00103
1.00497
1.00207
1.00171
1.00365
1.00514
1.00061
0.995677
0.997098
0.997655
0.996858
0.997464
0.997228
0.997441
0.996983
0.996721
0.996777
0.997537
0.997347
0.997636
0.997215
0.997249
0.996836
0.996926
0.998124
0.999436
0.999647
0.999493
0.999774
1.00014
0.999691
0.999685
1.00018
1.00032
0.999844
1.00002
1.00033
1.0002
1.00026
1.00146
1.0028
1.00306
1.00283
1.00295
1.00248
1.00281
1.00241
1.00309
1.00303
1.0032
1.00284
1.00272
1.00246
1.00331
1.00211
1.00266
1.00445
0.993829
0.99797
0.996377
0.992904
0.996988
0.997731
0.994958
0.994297
0.998459
0.997058
0.995167
0.997708
0.998732
0.996891
0.995499
0.996951
0.997376
0.997267
0.998481
0.999866
1.00007
0.99978
1.00009
1.00002
0.999647
1.00032
0.999958
0.999726
1.00007
0.999845
0.999816
1.00104
1.00246
1.00265
1.00311
1.00453
1.0033
1.00138
1.00237
1.00468
1.00276
1.00146
1.0057
1.00505
1.00219
1.00286
1.00686
1.00335
1.00221
1.006
0.99821
0.996038
0.997385
0.997693
0.998714
0.996279
0.997792
0.999057
0.998268
0.997862
0.998108
0.998275
0.997813
0.997632
0.998441
0.997391
0.996967
0.998118
0.998564
0.999321
1
1.00002
0.999737
1.00029
1.00022
0.999755
0.999523
1.00014
0.999944
0.999779
1.00036
1.00131
1.00195
1.00316
1.00302
1.00199
1.00257
1.00236
1.00161
1.00167
1.00218
1.00234
1.00109
1.00183
1.00406
1.00121
1.00208
1.00293
1.0042
1.00158
0.997267
0.99287
0.994802
0.998683
0.995172
0.992607
0.997217
0.997022
0.994957
0.99507
0.997468
0.996049
0.994475
0.99679
0.997023
0.995364
0.995297
0.997212
0.998292
0.998756
0.999276
1.00006
0.999779
0.999788
1.00008
0.999815
1.00013
1.00024
0.999733
1.00038
1.00109
1.00164
1.00265
1.00481
1.00509
1.00334
1.0032
1.00538
1.00392
1.00226
1.00479
1.0052
1.00291
1.00252
1.00751
1.00482
1.00182
1.00573
1.00698
1.00307
0.994743
0.998563
1.00028
0.992701
0.998589
0.998848
0.997452
0.996632
0.998894
0.999135
0.997114
0.998584
1.00004
0.998458
0.997789
0.998745
0.998944
0.997885
0.998664
1.00001
0.999945
1.0001
1.00034
0.999791
0.999804
1.00013
1.00022
0.999514
0.999629
0.999975
0.999935
1.00133
1.00262
1.00193
1.00194
1.00245
1.00154
0.999964
1.00146
1.00336
1.00115
1.00108
1.0035
1.0025
1.00153
1.00165
1.00822
0.999999
1.00197
1.00599
0.994476
1.00002
0.994085
0.991685
0.99629
0.997493
0.995837
0.995129
0.997294
0.996217
0.995063
0.996365
0.996363
0.994837
0.995271
0.995977
0.995699
0.995514
0.997069
0.998681
0.999339
0.999237
0.999942
1.00014
0.999978
0.999959
0.999722
0.999773
1.00066
1.0006
1.00111
1.00299
1.00516
1.00502
1.00434
1.00486
1.00528
1.00366
1.0034
1.00485
1.00375
1.00243
1.00525
1.00449
1.00262
1.00391
1.00814
1.00602
1.0018
1.0067
1.00216
0.988085
0.994867
1.00104
0.998044
0.99291
0.99876
0.999464
0.995789
0.997204
1.00005
0.999091
0.996665
0.998622
1.0001
0.997653
0.997079
0.999157
0.999788
0.999194
1.00014
1.0003
0.999993
1.00013
1.00007
0.999875
0.999769
0.999986
0.999667
0.999616
1.00109
1.00107
1.00181
1.00385
1.00337
1.00027
1.00067
1.00297
1.00106
1.00006
1.0028
1.00454
1.00083
1.00137
1.00736
1.00294
1.00001
1.0057
1.01204
0.996687
0.992006
0.992162
0.993978
0.997083
0.9954
0.993786
0.997081
0.996427
0.995556
0.996939
0.997683
0.99662
0.995589
0.99583
0.995495
0.995721
0.996543
0.997148
0.997722
0.998386
0.999487
1
0.999725
0.99975
0.999864
1.00002
1.00017
1.00023
0.99977
1.00024
1.00181
1.00293
1.00387
1.00486
1.0055
1.00467
1.00351
1.00418
1.00392
1.0025
1.00297
1.00481
1.00394
1.00254
1.00575
1.00541
1.00365
1.00534
1.00751
1.01025
0.991472
1.00359
0.997826
0.989921
0.99718
0.999219
0.99495
0.994953
0.998926
0.998526
0.996666
0.998185
0.998678
0.99652
0.995502
0.997734
0.998012
0.997208
0.998592
1.0003
0.999698
0.999588
1.00003
1.0001
0.999993
0.999942
0.999814
0.999845
1.00052
1.00062
0.999711
1.00204
1.00424
1.00345
1.00314
1.00473
1.00299
1.00039
1.00163
1.00365
1.00098
1.00112
1.00641
1.00548
0.999786
1.00398
1.01261
1.00022
0.99713
1.02098

VECTORS velocity double
1.73477e-17 -2.08172e-17 0
-1.73477e-17 -6.24517e-17 0
-3.46954e-17 -2.91441e-16 0
1.73477e-17 -5.55127e-17 0
1.07556e-16 -3.12259e-17 0
-4.16345e-17 -3.46954e-17 0
-4.16345e-17 -1.17964e-16 0
1.14495e-16 9.71471e-17 0
1.59599e-16 -1.04086e-16 0
-6.93908e-18 3.46954e-18 0
1.94294e-16 -1.73477e-17 0
2.77563e-17 -4.16345e-17 0
-5.20431e-17 -7.63299e-17 0
1.11025e-16 1.38782e-16 0
-4.5104e-17 3.46954e-18 0
7.28604e-17 -1.5266e-16 0
-1.42251e-16 -2.2552e-16 0
-1.63068e-16 -1.21434e-16 0
-1.04086e-16 -1.73477e-17 0
-7.97994e-17 -2.08172e-17 0
-2.77563e-17 7.28604e-17 0
-1.07556e-16 7.63299e-17 0
-2.08172e-17 1.14495e-16 0
2.08172e-17 4.16345e-17 0
7.28604e-17 1.21434e-16 0
4.5104e-17 3.12259e-17 0
5.20431e-17 2.42868e-16 0
1.31843e-16 -2.42868e-17 0
6.93908e-17 6.93908e-18 0
-2.08172e-17 -3.81649e-17 0
-7.63299e-17 6.59213e-17 0
-1.73477e-16 2.42868e-16 0
1.07556e-16 2.15112e-16 0
-1.73477e-17 1.24903e-16 0
6.24517e-17 -1.35312e-16 0
-8.67385e-17 1.21434e-16 0
-4.85736e-17 5.20431e-17 0
-2.77563e-17 -2.2899e-16 0
-2.39398e-16 5.89822e-17 0
-2.77563e-16 6.59213e-17 0
2.32459e-16 -1.04086e-17 0
4.5104e-17 -1.56129e-16 0
-1.80416e-16 -3.46954e-17 0
-1.70007e-16 1.38782e-17 0
7.63299e-17 4.85736e-17 0
9.36776e-17 -1.07556e-16 0
9.36776e-17 -1.07556e-16 0
2.77563e-17 -5.89822e-17 0
-1.00617e-16 1.56129e-16 0
4.37162e-16 -1.04086e-16 0
3.46954e-18 -3.46954e-17 0
-1.38782e-16 -6.24517e-17 0
-7.97994e-17 4.5104e-17 0
1.21434e-16 -3.81649e-17 0
1.38782e-17 2.32459e-16 0
-1.04086e-16 3.81649e-17 0
-1.14495e-16 -3.81649e-17 0
4.5104e-17 6.59213e-17 0
2.01233e-16 8.3269e-17 0
1.97764e-16 1.07556e-16 0
2.2552e-16 1.97764e-16 0
-4.16345e-17 -2.77563e-17 0
-2.77563e-17 2.11642e-16 0
1.90825e-16 -1.97764e-16 0
1.63068e-16 -6.24517e-17 0
1.97764e-16 -5.20431e-17 0
1.11025e-16 7.63299e-17 0
-3.12259e-17 5.89822e-17 0
-3.22667e-16 1.24903e-16 0
-2.32459e-16 1.56129e-16 0
-4.5104e-17 2.77563e-16 0
2.77563e-17 4.09406e-16 0
-5.89822e-17 4.68388e-16 0
-1.56129e-16 3.57363e-16 0
1.35312e-16 3.57363e-16 0
5.89822e-17 4.92675e-16 0
2.56746e-16 3.7471e-16 0
1.76947e-16 3.67771e-16 0
1.04086e-16 2.15112e-16 0
3.46954e-17 2.42868e-16 0
-4.16345e-17 1.00617e-16 0
-4.5104e-17 3.40015e-16 0
2.77563e-16 3.50424e-16 0
1.24903e-16 2.01233e-16 0
-3.46954e-17 1.83886e-16 0
1.59599e-16 1.5266e-16 0
-3.81649e-17 1.14495e-16 0
-2.91441e-16 7.28604e-17 0
-1.66538e-16 3.46954e-18 0
-2.2552e-16 3.60832e-16 0
-7.63299e-17 2.63685e-16 0
-5.89822e-17 2.70624e-16 0
5.55127e-17 9.02081e-17 0
1.73477e-17 5.55127e-17 0
3.12259e-17 1.14495e-16 0
1.38782e-16 -1.42251e-16 0
-2.11642e-16 -4.5104e-17 0
-7.97994e-17 -1.14495e-16 0
-9.02081e-17 1.42251e-16 0
3.46954e-17 -6.59213e-17 0
-2.77563e-17 -8.3269e-17 0
3.81649e-17 1.73477e-17 0
6.93908e-17 4.85736e-17 0
2.94911e-16 -1.42251e-16 0
-6.24517e-17 3.81649e-17 0
-1.90825e-16 -1.28373e-16 0
-8.67385e-17 -1.17964e-16 0
1.17964e-16 -1.04086e-17 0
2.94911e-16 2.42868e-17 0
1.94294e-16 -9.36776e-17 0
-6.93908e-18 -2.9838e-16 0
-4.85736e-17 -2.18581e-16 0
2.08172e-17 -1.28373e-16 0
2.01233e-16 -5.20431e-17 0
1.28373e-16 -2.53276e-16 0
-1.73477e-17 -1.97764e-16 0
-4.85736e-17 -1.24903e-16 0