# vtk DataFile Version 4.0
SiwiRVisFile
ASCII
DATASET STRUCTURED_POINTS
DIMENSIONS 50 50 1
ORIGIN 0 0 0
SPACING 1 1 1
POINT_DATA 2500


SCALARS flags double 1
LOOKUP_TABLE default
1
1
1
1
1
1
1
1
1
1
1
1
1
1
1
1
1
1
1
1
1
1
1
1
1
1
1
1
1
1
1
1
1
1
1
1
1
1
1
1
1
1
1
1
1
1
1
1
1
1
1
1
1
1
1
1
1
1
1
1
1
1
1
1
1
1
1
1
1
1
1
1
1
1
1
1
1
1
1
1
1
1
1
1
1
1
1
1
1
1
1
1
1
1
1
1
1
1
1
1
1
1
1
1
1
1
1
1
1
1
1
1
1
1
1
1
1
1
1
1
1
1
1
1
1
1
1
1
1
1
1
1
1
1
1
1
1
1
1
1
1
1
1
1
1
1
1
1
1
1
1
1
1
1
1
1
1
1
1
1
1
1
1
1
1
1
1
1
1
1
1
1
1
1
1
1
1
1
1
1
1
1
1
1
1
1
1
1
1
1
1
1
1
1
1
1
1
1
1
1
1
1
1
1
1
1
1
1
1
1
1
1
1
1
1
1
1
1
1
1
1
1
1
1
1
1
1
1
1
1
1
1
1
1
1
1
1
1
1
1
1
1
1
1
1
1
1
1
1
1
1
1
1
1
1
1
1
1
1
1
1
1
1
1
1
1
1
1
1
1
1
1
1
1
1
1
1
1
1
1
1
1
1
1
1
1
1
1
1
1
1
1
1
1
1
1
1
1
1
1
1
1
1
1
1
1
1
1
1
1
1
1
1
1
1
1
1
1
1
1
1
1
1
1
1
1
1
1
1
1
1
1
1
1
1
1
1
1
1
1
1
1
1
1
1
1
1
1
1
1
1
1
1
1
1
1
1
1
1
1
1
1
1
1
1
1
1
1
1
1
1
1
1
1
1
1
1
1
1
1
1
1
1
1
1
1
1
1
1
1
1
1
1
1
1
1
1
1
1
1
1
1
1
1
1
1
1
1
1
1
1
1
1
1
1
1
1
1
1
1
1
1
1
1
1
1
1
1
1
1
1
1
1
1
1
1
1
1
1
1
1
1
1
1
1
1
1
1
1
1
1
1
1
1
1
1
1
1
1
1
1
1
1
1
1
1
1
1
1
1
1
1
1
1
1
1
1
1
1
1
1
1
1
1
1
1
1
1
1
1
1
1
1
1
1
1
1
1
1
1
1
1
1
1
1
1
1
1
1
1
1
1
1
1
1
1
1
1
1
1
1
1
1
1
1
1
1
1
1
1
1
1
1
1
1
1
1
1
1
1
1
1
1
1
1
1
1
1
1
1
1
1
1
1
1
1
1
1
1
1
1
1
1
1
1
1
1
1
1
1
1
1
1
1
1
1
1
1
1
1
1
1
1
1
1
1
1
1
1
1
1
1
1
1
1
1
1
1
1
1
1
1
1
1
1
1
1
1
1
1
1
1
1
1
1
1
1
1
1
1
1
1
1
1
1
1
1
1
1
1
1
1
1
1
1
1
1
1
1
1
1
1
1
1
1
1
1
1
1
1
1
1
1
1
1
1
1
1
1
1
1
1
1
1
1
1
1
1
1
1
1
1
1
1
1
1
1
1
1
1
1
1
1
1
1
1
1
1
1
1
1
1
1
1
1
1
1
1
1
1
1
1
1
1
1
1
1
1
1
1
1
1
1
1
1
1
1
1
1
1
1
1
1
1
1
1
1
1
1
1
1
1
1
1
1
1
1
1
1
1
1
1
1
1
1
1
1
1
1
1
1
1
1
1
1
1
1
1
1
1
1
1
1
1
1
1
1
1
1
1
1
1
1
1
1
1
1
1
1
1
1
1
1
1
1
1
1
1
1
1
1
1
1
1
1
1
1
1
1
1
1
1
1
1
1
1
1
1
1
1
1
1
1
1
1
1
1
1
1
1
1
1
1
1
1
1
1
1
1
1
1
1
1
1
1
1
1
1
1
1
1
1
1
1
1
1
1
1
1
1
1
1
1
1
1
1
1
1
1
1
1
1
1
1
1
1
1
1
1
1
1
1
1
1
1
1
1
1
1
1
1
1
1
1
1
1
1
1
1
1
1
1
1
1
1
1
1
1
1
1
1
1
1
1
1
1
1
1
1
1
1
1
1
1
1
1
1
1
1
1
1
1
1
1
1
1
1
1
1
1
1
1
1
1
1
1
1
1
1
1
1
1
1
1
1
1
1
1
1
1
1
1
1
1
1
1
1
1
1
1
1
1
1
1
1
1
1
1
1
1
1
1
1
1
1
1
1
1
1
1
1
1
1
1
1
1
1
1
1
1
1
1
1
1
1
1
1
1
1
1
1
1
1
1
1
1
1
1
1
1
1
1
1
1
1
1
1
1
1
1
1
1
1
1
1
1
1
1
1
1
1
1
1
1
1
1
1
1
1
1
1
1
1
1
1
1
1
1
1
1
1
1
1
1
1
1
1
1
1
1
1
1
1
1
1
1
1
1
1
1
1
1
1
1
1
1
1
1
1
1
1
1
1
1
1
1
1
1
1
1
1
1
1
1
1
1
1
1
1
1
1
1
1
1
1
1
1
1
1
1
1
1
1
1
1
1
1
1
1
1
1
1
1
1
1
1
1
1
1
1
1
1
1
1
1
1
1
1
1
1
1
1
1
1
1
1
1
1
1
1
1
1
1
1
1
1
1
1
1
1
1
1
1
1
1
1
1
1
1
1
1
1
1
1
1
1
1
1
1
1
1
1
1
1
1
1
1
1
1
1
1
1
1
1
1
1
1
1
1
1
1
1
1
1
1
1
1
1
1
1
1
1
1
1
1
1
1
1
1
1
1
1
1
1
1
1
1
1
1
1
1
1
1
1
1
1
1
1
1
1
1
1
1
1
1
1
1
1
1
1
1
1
1
1
1
1
1
1
1
1
1
1
1
1
1
1
1
1
1
1
1
1
1
1
1
1
1
1
1
1
1
1
1
1
1
1
1
1
1
1
1
1
1
1
1
1
1
1
1
1
1
1
1
1
1
1
1
1
1
1
1
1
1
1
1
1
1
1
1
1
1
1
1
1
1
1
1
1
1
1
1
1
1
1
1
1
1
1
1
1
1
1
1
1
1
1
1
1
1
1
1
1
1
1
1
1
1
1
1
1
1
1
1
1
1
1
1
1
1
1
1
1
1
1
1
1
1
1
1
1
1
1
1
1
1
1
1
1
1
1
1
1
1
1
1
1
1
1
1
1
1
1
1
1
1
1
1
1
1
1
1
1
1
1
1
1
1
1
1
1
1
1
1
1
1
1
1
1
1
1
1
1
1
1
1
1
1
1
1
1
1
1
1
1
1
1
1
1
1
1
1
1
1
1
1
1
1
1
1
1
1
1
1
1
1
1
1
1
1
1
1
1
1
1
1
1
1
1
1
1
1
1
1
1
1
1
1
1
1
1
1
1
1
1
1
1
1
1
1
1
1
1
1
1
1
1
1
1
1
1
1
1
1
1
1
1
1
1
1
1
1
1
1
1
1
1
1
1
1
1
1
1
1
1
1
1
1
1
1
1
1
1
1
1
1
1
1
1
1
1
1
1
1
1
1
1
1
1
1
1
1
1
1
1
1
1
1
1
1
1
1
1
1
1
1
1
1
1
1
1
1
1
1
1
1
1
1
1
1
1
1
1
1
1
1
1
1
1
1
1
1
1
1
1
1
1
1
1
1
1
1
1
1
1
1
1
1
1
1
1
1
1
1
1
1
1
1
1
1
1
1
1
1
1
1
1
1
1
1
1
1
1
1
1
1
1
1
1
1
1
1
1
1
1
1
1
1
1
1
1
1
1
1
1
1
1
1
1
1
1
1
1
1
1
1
1
1
1
1
1
1
1
1
1
1
1
1
1
1
1
1
1
1
1
1
1
1
1
1
1
1
1
1
1
1
1
1
1
1
1
1
1
1
1
1
1
1
1
1
1
1
1
1
1
1
1
1
1
1
1
1
1
1
1
1
1
1
1
1
1
1
1
1
1
1
1
1
1
1
1
1
1
1
1
1
1
1
1
1
1
1
1
1
1
1
1
1
1
1
1
1
1
1
1
1
1
1
1
1
1
1
1
1
1
1
1
1
1
1
1
1
1
1
1
1
1
1
1
1
1
1
1
1
1
1
1
1
1
1
1
1
1
1
1
1
1
1
1
1
1
1
1
1
1
1
1
1
1
1
1
1
1
1
1
1
1
1
1
1
1
1
1
1
1
1
1
1
1
1
1
1
1
1
1
1
1
1
1
1
1
1
1
1
1
1
1
1
1
1
1
1
1
1
1
1
1
1
1
1
1
1
1
1
1
1
1
1
1
1
1
1
1
1
1
1
1
1
1
1
1
1
1
1
1
1
1
1
1
1
1
1
1
1
1
1
1
1
1
1
1
1
1
1
1
1
1
1
1
1
1
1
1
1
1
1
1
1
1
1
1
1
1
1
1
1
1
1
1
1
1
1
1
1
1
1
1
1
1
1
1
1
1
1
1
1
1
1
1
1
1
1
1
1
1
1
1
1
1
1
1
1
1
1
1
1
1
1
1
1
1
1
1
1
1
1
1
1
1
1
1
1
1
1
1
1
1
1
1
1
1
1
1
1
1
1
1
1
1
1
1
1
1
1
1
1
1
1
1
1
1
1
1
1
1
1
1
1
1
1
1
1
1
1
1
1
1
1
1
1
1
1
1
1
1
1
1
1
1
1
1
1
1
1
1
1
1
1
1
1
1
1
1
1
1
1
1
1
1
1
1
1
1
1
1
1
1
1
1
1
1
1
1
1
1
1
1
1
1
1
1
1
1
1
1
1
1
1
1
1
1
1
1
1
1
1
1
1
1
1
1
1
1
1
1
1
1
1
1
1
1
1
1
1
1
1
1
1
1
1
1
1
1
1
1
1
1
1
1
1
1
1
1
1
1
1
1
1
1
1
1
1
1
1
1
1
1
1
1
1
1
1
1
1
1
1
1
1
1
1
1
1
1
1
1
1
1
1
1
1
1
1
1
1
1
1
1
1
1
1
1
1
1
1
1
1
1
1
1
1
1
1
1
1
1
1
1
1
1
1
1
1
1
1
1
1
1
1
1
1
1
1
1
1
1
1
1
1
1
1
1
1
1
1
1
1
1
1
1
1
1
1
1
1
1
1
1
1
1
1
1
1
1
1
1
1
1
1
1
1
1
1
1
1
1
1
1
1
1
1
1
1
1
1
1
1
1
1
1
1
1
1
1
1
1
1
1
1
1
1
1
1
1
1
1
1
1
1
1
1
1
1
1
1
1
1
1
1
1
1
1
1
1
1
1
1
1
1
1
1
1
1
1
1
1
1
1
1
1
1
1
1
1
1
1
1
1
1
1
1
1
1
1
1
1
1
1
1
1
1
1
1
1
1
1
1
1
1
1
1
1
1
1
1
1
1
1
1
1
1
1
1
1
1
1
1
1
1
1
1
1
1
1
1
1
1
1
1
1
1
1
1
1
1
1
1
1
1
1
1
1
1
1
1
1
1
1
1
1
1
1
1
1
1
1
1
1
1
1
1
1
1
1
1
1
1
1
1
1
1
1
1
1
1
1
1
1
1
1
1
1
1
1
1
1
1
1
1
1
1
1
1
1
1
1
1
1
1
1
1
1
1
1
1
1
1
1
1
1
1
1
1
1
1
1
1
1
1
1
1
1
1
1
1
1
1
1
1
1
1
1

SCALARS density double 1
LOOKUP_TABLE default
0.999965
0.999965
0.999965
0.999965
0.999965
0.999965
0.999965
0.999965
0.999965
0.999965
0.999965
0.999965
0.999965
0.999965
0.999965
0.999965
0.999965
0.999965
0.999965
0.999965
0.999965
0.999965
0.999965
0.999965
0.999965
0.999965
0.999965
0.999965
0.999965
0.999965
0.999965
0.999965
0.999965
0.999965
0.999965
0.999965
0.999965
0.999965
0.999965
0.999965
0.999965
0.999965
0.999965
0.999965
0.999965
0.999965
0.999965
0.999965
0.999965
0.999965
0.999965
0.999965
0.999965
0.999965
0.999965
0.999965
0.999965
0.999965
0.999965
0.999965
0.999965
0.999965
0.999965
0.999965
0.999965
0.999965
0.999965
0.999965
0.999965
0.999965
0.999965
0.999965
0.999965
0.999965
0.999965
0.999965
0.999965
0.999965
0.999965
0.999965
0.999965
0.999965
0.999965
0.999965
0.999965
0.999965
0.999965
0.999965
0.999965
0.999965
0.999965
0.999965
0.999965
0.999965
0.999965
0.999965
0.999965
0.999965
0.999965
0.999965
0.999965
0.999965
0.999965
0.999965
0.999965
0.999965
0.999965
0.999965
0.999965
0.999965
0.999965
0.999965
0.999965
0.999965
0.999965
0.999965
0.999965
0.999965
0.999965
0.999965
0.999965
0.999965
0.999965
0.999965
0.999965
0.999965
0.999965
0.999965
0.999965
0.999965
0.999965
0.999965
0.999965
0.999965
0.999965
0.999965
0.999965
0.999965
0.999965
0.999965
0.999965
0.999965
0.999965
0.999965
0.999965
0.999965
0.999965
0.999965
0.999965
0.999965
0.999965
0.999965
0.999965
0.999965
0.999965
0.999965
0.999965
0.999965
0.999965
0.999965
0.999965
0.999965
0.999965
0.999965
0.999965
0.999965
0.999965
0.999965
0.999965
0.999965
0.999965
0.999965
0.999965
0.999965
0.999965
0.999965
0.999965
0.999965
0.999965
0.999965
0.999965
0.999965
0.999965
0.999965
0.999965
0.999965
0.999965
0.999965
0.999965
0.999965
0.999965
0.999965
0.999965
0.999965
0.999965
0.999965
0.999965
0.999965
0.999965
0.999965
0.999965
0.999965
0.999965
0.999965
0.999965
0.999965
0.999965
0.999965
0.999965
0.999965
0.999965
0.999965
0.999965
0.999965
0.999965
0.999965
0.999965
0.999965
0.999965
0.999965
0.999965
0.999965
0.999965
0.999965
0.999965
0.999965
0.999965
0.999965
0.999965
0.999965
0.999965
0.999965
0.999965
0.999965
0.999965
0.999965
0.999965
0.999965
0.999965
0.999965
0.999965
0.999965
0.999965
0.999965
0.999965
0.999965
0.999965
0.999965
0.999965
0.999965
0.999966
0.999965
0.999965
0.999966
0.999966
0.999966
0.999966
0.999966
0.999966
0.999965
0.999965
0.999965
0.999965
0.999965
0.999965
0.999965
0.999965
0.999965
0.999965
0.999965
0.999965
0.999965
0.999965
0.999965
0.999965
0.999965
0.999965
0.999966
0.999966
0.999966
0.999966
0.999966
0.999966
0.999966
0.999966
0.999966
0.999966
0.999965
0.999965
0.999965
0.999965
0.999965
0.999965
0.999965
0.999965
0.999965
0.999965
0.999965
0.999965
0.999965
0.999965
0.999964
0.999965
0.999965
0.999965
0.999965
0.999965
0.999965
0.999965
0.999965
0.999965
0.999965
0.999965
0.999965
0.999965
0.999965
0.999965
0.999965
0.999965
0.999965
0.999965
0.999965
0.999965
0.999965
0.999965
0.999965
0.999965
0.999965
0.999965
0.999965
0.999965
0.999965
0.999965
0.999965
0.999965
0.999965
0.999965
0.999965
0.999965
0.999965
0.999965
0.999965
0.999965
0.999965
0.999965
0.999965
0.999965
0.999965
0.999966
0.999965
0.999965
0.999967
0.999965
0.999965
0.999965
0.999965
0.999965
0.999965
0.999965
0.999965
0.999965
0.999965
0.999965
0.999965
0.999965
0.999965
0.999966
0.999966
0.999966
0.999966
0.999966
0.999966
0.999966
0.999966
0.999965
0.999965
0.999965
0.999965
0.999965
0.999965
0.999965
0.999965
0.999965
0.999965
0.999965
0.999965
0.999965
0.999965
0.999966
0.999966
0.999966
0.999966
0.999966
0.999966
0.999966
0.999966
0.999966
0.999965
0.999966
0.999965
0.999964
0.999965
0.999965
0.999966
0.999966
0.999966
0.999966
0.999966
0.999966
0.999965
0.999965
0.999965
0.999965
0.999965
0.999965
0.999966
0.999966
0.999966
0.999965
0.999966
0.999966
0.999965
0.999965
0.999966
0.999966
0.999965
0.999965
0.999966
0.999965
0.999965
0.999965
0.999966
0.999965
0.999965
0.999966
0.999966
0.999966
0.999966
0.999966
0.999966
0.999966
0.999966
0.999966
0.999966
0.999966
0.999966
0.999966
0.999966
0.999963
0.999966
0.999967
0.999965
0.999966
0.999965
0.999966
0.999966
0.999966
0.999966
0.999966
0.999966
0.999966
0.999966
0.999966
0.999966
0.999966
0.999966
0.999965
0.999964
0.999965
0.999965
0.999962
0.999963
0.999967
0.999963
0.999963
0.999969
0.999968
0.999964
0.999968
0.999969
0.999966
0.999966
0.999967
0.999966
0.999965
0.999965
0.999965
0.999965
0.999965
0.999965
0.999965
0.999965
0.999965
0.999965
0.999965
0.999965
0.999965
0.999966
0.999963
0.999966
0.999965
0.999965
0.999966
0.999965
0.999965
0.999965
0.999965
0.999965
0.999965
0.999965
0.999966
0.999966
0.999966
0.999966
0.999967
0.999965
0.999964
0.999965
0.999967
0.999964
0.999962
0.999966
0.999969
0.999963
0.999962
0.999969
0.999968
0.999962
0.999965
0.999969
0.999966
0.999964
0.999965
0.999966
0.999964
0.999963
0.999963
0.999964
0.999964
0.999964
0.999965
0.999965
0.999966
0.999966
0.999966
0.999966
0.999966
0.999964
0.999971
0.999964
0.999964
0.999969
0.999964
0.999966
0.999965
0.999966
0.999966
0.999965
0.999965
0.999965
0.999966
0.999965
0.999965
0.999966
0.999966
0.99996
0.999967
0.999975
0.999957
0.999958
0.99999
0.999971
0.999939
0.999981
0.999992
0.999938
0.99995
0.999991
0.999959
0.99994
0.999972
0.999973
0.999956
0.999964
0.999971
0.999966
0.999965
0.999967
0.999967
0.999967
0.999967
0.999967
0.999967
0.999967
0.999966
0.999966
0.999965
0.999964
0.999965
0.999963
0.999964
0.999964
0.999966
0.999966
0.999967
0.999966
0.999966
0.999966
0.999967
0.999967
0.999966
0.999967
0.999966
0.999962
0.999965
0.999966
0.999958
0.999966
0.999975
0.99996
0.999959
0.999975
0.999971
0.999957
0.999961
0.999971
0.999971
0.999959
0.999958
0.999973
0.999971
0.999958
0.999967
0.999973
0.999966
0.999967
0.999969
0.999964
0.999964
0.999965
0.999963
0.999963
0.999963
0.999963
0.999963
0.999964
0.999963
0.999968
0.999961
0.999969
0.999965
0.999964
0.999967
0.999965
0.999965
0.999964
0.999965
0.999965
0.999965
0.999967
0.999964
0.999966
0.999975
0.999953
0.999954
1
0.999963
0.999908
1
1.00002
0.999881
0.999937
1.00006
0.999925
0.999876
1.00005
1.00001
0.999869
0.999993
1.00005
0.999914
0.99993
1.00002
0.999966
0.99993
0.999974
0.999975
0.999954
0.999963
0.999965
0.999963
0.999965
0.999966
0.999966
0.999967
0.999965
0.999967
0.999968
0.999965
0.999969
0.999956
0.999965
0.999962
0.999965
0.999964
0.999964
0.999965
0.999965
0.99996
0.999968
0.99997
0.999944
0.999969
0.999997
0.999935
0.999931
1.00003
0.999989
0.999894
0.999962
1.00004
0.999943
0.999889
1.00001
1.00003
0.999898
0.999929
1.00004
0.999979
0.999892
0.999972
1.00003
0.999939
0.99991
1
0.999994
0.999937
0.999964
0.999988
0.999964
0.999965
0.999973
0.999968
0.999968
0.999969
0.999965
0.999968
0.999964
0.999971
0.999969
0.999948
0.999959
0.999959
0.999961
0.999966
0.999964
0.999963
0.999974
0.999959
0.99995
0.999999
0.999964
0.999895
1.00001
1.00004
0.999863
0.999934
1.0001
0.999919
0.999855
1.00009
1.00001
0.999827
1.00002
1.00008
0.999853
0.999907
1.0001
0.99993
0.999841
1.00007
1.00001
0.999841
0.999995
1.00006
0.999898
0.999929
1.00003
0.999967
0.999934
0.999979
0.99997
0.999956
0.999967
0.999964
0.999966
0.999969
0.999969
0.999972
0.999982
0.999947
0.999942
0.99996
0.999954
0.999966
0.999969
0.999949
0.999971
1
0.999919
0.999932
1.00007
0.999968
0.999833
1.00002
1.00009
0.999863
0.999873
1.0001
1.00001
0.999805
0.999981
1.00014
0.999885
0.999831
1.00011
1.00004
0.999796
0.999961
1.00012
0.999914
0.999845
1.00005
1.00005
0.999844
0.999913
1.00008
0.999957
0.999864
0.999994
1.00001
0.999927
0.999959
0.999979
0.99996
0.999966
0.999977
0.999975
0.999983
0.999989
0.999938
0.999916
0.99995
0.999946
0.999942
0.999988
0.999969
0.999896
1.00002
1.00005
0.999841
0.999922
1.00013
0.99993
0.999839
1.00008
0.999995
0.99984
1.00001
1.00002
0.99988
0.99997
1
0.99994
0.999944
0.999974
1
0.999935
0.999944
1.00005
0.999924
0.999913
1.00007
0.999944
0.999864
1.00007
0.999994
0.999823
1.00001
1.00008
0.999888
0.999921
1.00003
0.999963
0.999948
0.999985
0.999984
0.999979
1.00001
0.999987
0.99991
0.999888
0.999903
0.999944
0.999891
0.999917
1.00006
0.999927
0.999813
1.00007
1.00007
0.999796
0.999922
1.00012
0.999922
0.999824
1.00005
1.00008
0.999835
0.9999
1.00013
0.999942
0.999817
1.00004
1.00005
0.999873
0.99989
1.00011
0.999984
0.999802
1.00004
1.00009
0.99985
0.9999
1.0001
0.999997
0.999829
1.00001
1.00011
0.999867
0.999876
1.0001
0.999994
0.999883
1.00001
1.00003
0.999984
1.00002
1.00004
1.00001
0.999866
0.999888
0.9998
0.999905
0.999945
0.999768
0.9999
1.00013
0.99989
0.999799
1.00008
1.00002
0.999846
0.999994
1.00002
0.999909
0.999989
0.999969
0.999938
1.00004
0.999958
0.99994
0.999995
0.999953
0.999954
0.999987
0.99997
0.99993
1
0.999978
0.999883
0.999986
0.999974
0.999937
1
0.999917
0.999941
1.00006
0.999905
0.99987
1.00011
1.00002
0.99982
1.00003
1.00013
0.999987
1.00002
1.00012
1.00003
1.00006
0.99977
0.999919
0.999747
0.999675
0.999936
0.999926
0.999673
0.999889
1.0001
0.999885
0.99987
1.00007
0.999997
0.999876
0.999956
1.00007
0.999918
0.999869
1.00009
0.999981
0.999822
1
1.00007
0.999904
0.999908
1.00002
1.00003
0.999852
0.999921
1.00011
0.999943
0.999834
1.00007
1
0.99985
0.999985
1.00005
0.999916
0.999876
1.00005
1.00002
0.999848
1.00004
1.00021
0.999988
0.999991
1.00021
1.00015
0.999991
1.00013
0.999617
0.99969
0.999775
0.999552
0.999477
0.999823
0.999809
0.999632
0.999843
0.999971
0.999874
0.999891
0.999969
0.999976
0.999974
0.999922
0.999963
0.999999
0.999894
0.999924
1.00006
0.999889
0.999959
1.00002
0.999919
1.00001
0.999908
0.999975
1.00004
0.999861
1.00001
1.00005
0.999918
0.999957
1.00002
0.99996
0.999929
0.999957
1.00005
1.00003
0.999943
1.00008
1.00024
1.00008
1.00009
1.00037
1.00029
1.0001
1.00019
1.00023
0.999639
0.999156
0.999296
0.999614
0.999272
0.999243
0.999567
0.99958
0.999561
0.999727
0.9999
0.999841
0.999859
1.00005
0.999973
0.999788
1.00006
1.00013
0.999805
0.999954
1.00005
1
0.99985
0.999981
1.00015
0.999787
0.999945
1.00009
0.999922
0.999878
0.999977
1.00012
0.999788
0.999867
1.00014
0.999932
0.999872
1.00007
1.00006
0.999978
1.00017
1.00031
1.00025
1.00028
1.00055
1.0005
1.0002
1.00049
1.0006
1.00021
0.999139
0.99898
0.99875
0.999032
0.999068
0.998967
0.998973
0.999263
0.999354
0.999394
0.999645
0.999865
0.99977
0.999816
1.00002
1.00006
0.999849
0.99988
1.00013
0.999925
0.999915
0.999989
1.00001
0.999929
0.999805
1.00011
1.00001
0.999893
0.999939
1.00004
0.999987
0.999781
1.00006
1.00008
0.999839
0.9999
1.0001
1.00011
1
1.00023
1.00044
1.00041
1.00048
1.00075
1.00071
1.00059
1.00065
1.00088
1.00062
1.0006
0.998079
0.998848
0.998553
0.998162
0.998367
0.998645
0.998393
0.998555
0.998887
0.99894
0.999067
0.999509
0.99977
0.999567
0.999832
1.00006
0.999851
0.999824
1.00007
1.00002
0.999835
0.999941
1.00004
0.999966
0.999851
1.00007
0.999959
0.999891
0.999998
1.00007
0.999914
0.99987
1.00008
1.00005
0.999857
1.00008
1.00029
1.00009
1.00032
1.00069
1.00073
1.00076
1.00105
1.00112
1.00087
1.00109
1.00129
1.00094
1.00069
1.00136
0.998084
0.997963
0.997658
0.997961
0.997887
0.998029
0.997929
0.997919
0.998113
0.998496
0.998567
0.998737
0.999261
0.999656
0.999589
0.999775
0.999984
1.00009
0.999706
0.99999
1.00014
0.999968
0.999861
0.99995
1.00023
0.999709
0.999966
1.00009
0.999952
0.999789
0.999919
1.00021
0.999816
0.99992
1.00014
1.00024
1.00015
1.00051
1.00092
1.00099
1.00102
1.00133
1.00141
1.00135
1.00133
1.00143
1.00132
1.00159
1.00143
1.00124
0.997907
0.997365
0.997402
0.998354
0.997546
0.997555
0.997915
0.997876
0.997504
0.997785
0.998128
0.998263
0.998542
0.999109
0.999434
0.999448
0.999847
0.999893
1.00004
0.999766
1.00005
0.999955
0.999854
1.00008
0.999895
1.00002
0.999863
1.00004
0.999972
0.999881
1.00012
0.999889
1.00002
1.00002
1.00036
1.00034
1.0006
1.00103
1.00117
1.00126
1.00152
1.0017
1.00137
1.00136
1.00168
1.00166
1.00103
1.00181
1.00186
1.0014
0.996962
0.997657
0.997931
0.997957
0.997587
0.997938
0.997917
0.997651
0.99776
0.997428
0.997461
0.997759
0.998032
0.998038
0.998822
0.999431
0.999401
0.999633
0.999983
1.00004
0.999603
1.00007
1.00016
0.999774
0.999892
1.00004
1.00014
0.999779
0.999835
1.0003
0.999908
0.999878
1.00024
1.00041
1.00032
1.00079
1.00142
1.00136
1.00152
1.0018
1.00178
1.00149
1.00168
1.00151
1.00147
1.00178
1.00162
1.00153
1.00165
1.00229
0.997231
0.998198
0.997712
0.997513
0.998127
0.99861
0.997909
0.997768
0.998102
0.997982
0.997308
0.997383
0.997592
0.99799
0.997954
0.998831
0.999134
0.999433
0.999755
0.999927
1.00011
0.999767
1.00001
1.00002
0.999983
0.999946
0.999906
0.999908
1.00013
0.999811
0.999961
1.00011
1.00032
1.00056
1.00075
1.00147
1.00137
1.00167
1.00187
1.00193
1.00143
1.00143
1.00178
1.00171
1.00125
1.00161
1.00214
1.00197
1.00148
1.00218
0.997894
0.997714
0.997369
0.998306
0.997898
0.997588
0.998214
0.998652
0.997988
0.997987
0.998211
0.997418
0.997359
0.997591
0.997832
0.997541
0.998829
0.999238
0.999299
0.999643
0.999957
1.00004
0.99961
1.00011
1.00009
0.999826
0.999786
1.00028
0.999927
0.999904
1.00018
1.00049
1.00045
1.00074
1.00182
1.00151
1.00167
1.00193
1.00196
1.00135
1.00165
1.00181
1.00126
1.00162
1.0023
1.00195
1.0015
1.00242
1.00214
1.00178
0.997705
0.997324
0.997168
0.997862
0.997138
0.997119
0.998073
0.99816
0.997829
0.997944
0.998378
0.99804
0.997287
0.997157
0.997436
0.997848
0.997697
0.998638
0.999092
0.999527
0.999622
0.999925
1.00011
0.999806
0.999873
1.00004
1.0001
0.999813
0.99993
1.00025
1.00026
1.00054
1.00095
1.0017
1.00152
1.00184
1.00222
1.00216
1.00159
1.00151
1.00192
1.00203
1.00185
1.0018
1.00261
1.00256
1.00197
1.00243
1.00246
1.00224
0.997115
0.998519
0.997599
0.997158
0.997377
0.998325
0.997263
0.997043
0.998427
0.998649
0.997616
0.998377
0.99825
0.997615
0.997227
0.997574
0.99774
0.997651
0.999001
0.999162
0.999462
0.999773
1.0001
0.999899
0.999745
1.00015
1.00004
0.999809
1.00005
1.0003
1.00054
1.0006
1.0017
1.00165
1.00172
1.00219
1.00196
1.0015
1.00152
1.00229
1.00142
1.00146
1.00279
1.00242
1.00152
1.00223
1.00267
1.00208
1.00146
1.00281
0.997794
0.99833
0.997568
0.997742
0.997756
0.997677
0.997451
0.997153
0.997988
0.997531
0.998104
0.997951
0.998511
0.997793
0.997412
0.997051
0.997396
0.997857
0.997593
0.998822
0.999394
0.999538
0.999634
0.99991
1.00019
0.999724
0.99993
1.00022
1.00028
1.00031
1.00075
1.00184
1.00157
1.00196
1.0024
1.00221
1.00194
1.00154
1.0021
1.00186
1.00232
1.00197
1.00254
1.00226
1.00232
1.00207
1.00221
1.00237
1.00181
1.00218
0.998344
0.997031
0.997199
0.998427
0.997751
0.996564
0.997709
0.997743
0.996651
0.996929
0.998336
0.998124
0.997387
0.998501
0.998093
0.997299
0.997086
0.997587
0.997823
0.998041
0.999091
0.999397
0.999601
0.999991
0.999998
0.999895
0.999871
1.00019
1.00035
1.00055
1.00142
1.00164
1.00184
1.00234
1.00241
1.00179
1.00155
1.00254
1.00189
1.00154
1.00278
1.00308
1.00205
1.00205
1.0033
1.00217
1.00167
1.00274
1.003
1.00171
0.996886
0.998016
0.997399
0.997118
0.997378
0.997682
0.997509
0.997442
0.997656
0.997525
0.997296
0.997769
0.998191
0.997985
0.998354
0.997802
0.997458
0.996966
0.997558
0.997982
0.998047
0.999213
0.999791
0.999637
0.999679
1.00016
1.00022
0.999992
1.00041
1.00147
1.00155
1.00182
1.00256
1.0023
1.00202
1.00165
1.00206
1.00182
1.00204
1.00253
1.00222
1.002
1.00248
1.00226
1.00206
1.00239
1.0028
1.00232
1.0019
1.003
0.996173
0.998108
0.997313
0.996088
0.997685
0.998399
0.997349
0.996546
0.998474
0.997551
0.996469
0.9973
0.998212
0.997817
0.997338
0.998426
0.997548
0.996955
0.997075
0.997565
0.998239
0.998556
0.999303
0.999689
0.999805
1
1.0001
1.00039
1.00103
1.00131
1.00195
1.00248
1.00273
1.00233
1.00163
1.0027
1.00221
1.00169
1.00248
1.00326
1.00237
1.00146
1.00333
1.0025
1.00154
1.00213
1.00354
1.00238
1.00183
1.00341
0.997753
0.996574
0.996931
0.997977
0.997685
0.996477
0.997837
0.997899
0.997152
0.997295
0.997809
0.997503
0.997027
0.997878
0.998512
0.997674
0.998106
0.997839
0.99714
0.9972
0.997974
0.998448
0.998721
0.9997
1.00005
0.99977
0.999976
1.0009
1.0012
1.00154
1.00231
1.00264
1.00205
1.0019
1.00237
1.00157
1.00193
1.00274
1.00239
1.00194
1.00263
1.00273
1.00197
1.00202
1.00345
1.00214
1.0018
1.00286
1.00316
1.00177
0.997135
0.995887
0.996468
0.997951
0.996595
0.995479
0.997386
0.997731
0.996727
0.996561
0.998435
0.997359
0.996648
0.997586
0.998183
0.997797
0.997502
0.997939
0.997158
0.996787
0.997146
0.99802
0.998865
0.999238
0.999606
1.00011
1.00046
1.00075
1.00154
1.00249
1.00291
1.0027
1.00209
1.00258
1.00229
1.00174
1.00224
1.00307
1.00257
1.00155
1.00311
1.00299
1.00214
1.00242
1.00418
1.0031
1.00215
1.00318
1.00375
1.00259
0.996324
0.998058
0.998039
0.99587
0.997654
0.998184
0.997063
0.996724
0.998643
0.998014
0.996633
0.997821
0.998235
0.99744
0.997134
0.99823
0.998494
0.997406
0.997771
0.997605
0.997128
0.997777
0.998698
0.99906
0.999461
1.00015
1.00064
1.00096
1.00181
1.00262
1.00239
1.00221
1.00267
1.00169
1.00168
1.00268
1.00253
1.00174
1.00204
1.0033
1.00188
1.00118
1.00321
1.0027
1.00166
1.00225
1.0042
1.00179
1.00194
1.00355
0.996766
0.998178
0.997154
0.996261
0.997134
0.997791
0.997185
0.996592
0.997563
0.997576
0.996979
0.997077
0.997812
0.99712
0.99701
0.997839
0.997859
0.997756
0.997426
0.99738
0.997148
0.997109
0.997836
0.998884
0.999758
0.999907
1.00067
1.0018
1.00267
1.00271
1.00258
1.00272
1.00243
1.00212
1.00201
1.00279
1.0029
1.00222
1.00275
1.00299
1.00237
1.00236
1.00333
1.00267
1.00243
1.00284
1.00346
1.00291
1.00215
1.00318
0.998587
0.994737
0.99597
0.998584
0.996993
0.994937
0.998443
0.997877
0.995661
0.996556
0.998541
0.997516
0.996073
0.998176
0.998473
0.997219
0.997522
0.998607
0.997985
0.996894
0.997317
0.997522
0.997746
0.998686
0.999576
1.0001
1.00093
1.00198
1.00245
1.00274
1.00323
1.00224
1.0014
1.00231
1.00282
1.00165
1.00168
1.00369
1.00237
1.00145
1.00336
1.00417
1.00218
1.00161
1.00517
1.00295
1.00154
1.00403
1.00538
1.00147
0.996412
0.997144
0.997916
0.997257
0.997598
0.996774
0.997506
0.997608
0.997208
0.997432
0.998006
0.998054
0.997779
0.997591
0.99775
0.997478
0.997872
0.997946
0.997773
0.997816
0.997277
0.997257
0.997853
0.998337
0.999042
1.00049
1.00146
1.00207
1.00272
1.00293
1.00247
1.00235
1.00214
1.00215
1.00247
1.00222
1.00237
1.00227
1.002
1.00198
1.00252
1.00266
1.00263
1.00272
1.00311
1.00255
1.00326
1.0021
1.00296
1.00408
0.994793
0.999144
0.996946
0.993696
0.996558
0.998555
0.995335
0.994447
0.99829
0.997538
0.99563
0.996794
0.998114
0.997051
0.996236
0.997667
0.997774
0.996738
0.997673
0.998051
0.996959
0.996625
0.997326
0.998331
0.999216
1.00045
1.00149
1.00264
1.00353
1.00334
1.00222
1.00234
1.00326
1.00231
1.00215
1.00368
1.00309
1.00188
1.00302
1.00427
1.00257
1.0017
1.00557
1.00479
1.00151
1.0035
1.00632
1.00289
1.00158
1.00564
0.998537
0.995636
0.996337
0.997545
0.997604
0.9959
0.997765
0.99776
0.997127
0.997857
0.998037
0.997545
0.997652
0.998368
0.998603
0.997929
0.998121
0.998439
0.99829
0.997997
0.997997
0.997843
0.997524
0.998315
0.999552
1.0004
1.00161
1.00268
1.00266
1.00241
1.00225
1.00184
1.0016
1.00186
1.00215
1.00157
1.0018
1.00234
1.00235
1.00199
1.00228
1.00315
1.00233
1.00224
1.00445
1.00247
1.0024
1.00378
1.0049
1.00144
0.997814
0.993449
0.99514
0.999689
0.995364
0.993855
0.997462
0.997511
0.995115
0.995488
0.997975
0.996697
0.995747
0.997393
0.997658
0.996683
0.996742
0.997463
0.996895
0.996538
0.997173
0.997071
0.996957
0.997707
0.99913
1.0007
1.00238
1.0034
1.00338
1.00323
1.00371
1.00319
1.00234
1.00312
1.00344
1.00232
1.00242
1.0042
1.00347
1.00203
1.0044
1.00505
1.00259
1.00251
1.00636
1.00461
1.00097
1.00547
1.00654
1.00287
0.993041
0.998829
0.998565
0.99259
0.997958
0.998557
0.996804
0.995583
0.998433
0.998264
0.996252
0.99775
0.998984
0.9981
0.99746
0.998655
0.998868
0.997943
0.998041
0.998965
0.998295
0.997476
0.998214
0.99881
0.99951
1.00072
1.00173
1.0025
1.0032
1.00241
1.0013
1.00185
1.00216
1.00133
1.00128
1.00239
1.00209
1.00125
1.00217
1.0039
1.00206
1.00168
1.00447
1.00336
1.00161
1.00221
1.00791
1.00161
1.00167
1.00771
0.994578
0.999969
0.994528
0.992304
0.996341
0.997951
0.995292
0.995117
0.997547
0.996669
0.995281
0.996514
0.997879
0.997099
0.996495
0.997705
0.997512
0.99635
0.996604
0.997042
0.996663
0.996728
0.997215
0.997908
0.999304
1.00107
1.00249
1.0034
1.00401
1.00387
1.00311
1.00341
1.00379
1.00248
1.00195
1.00357
1.0034
1.00222
1.00328
1.00482
1.00352
1.00225
1.00507
1.00496
1.00229
1.00379
1.00775
1.0054
1.0017
1.00616
1.00119
0.98935
0.994745
1.00126
0.997456
0.992958
0.998673
0.999322
0.995337
0.996047
0.998578
0.997899
0.99651
0.998126
0.998816
0.997927
0.998014
0.99872
0.998248
0.997534
0.9982
0.998721
0.998027
0.998566
0.999881
1.00096
1.0025
1.00335
1.00261
1.00232
1.00241
1.00152
1.00102
1.00177
1.00194
1.00108
1.00179
1.00372
1.0025
1.00155
1.00392
1.00507
1.00106
1.00148
1.00726
1.00332
0.999331
1.00614
1.01092
0.998005
0.992989
0.991968
0.994004
0.997091
0.995088
0.994441
0.99706
0.996652
0.995553
0.99646
0.997166
0.996767
0.996855
0.997727
0.997795
0.997151
0.997407
0.997338
0.996695
0.996743
0.996939
0.99679
0.997333
0.998786
0.999885
1.00093
1.00242
1.004
1.00435
1.00364
1.00344
1.00329
1.00245
1.00239
1.003
1.00247
1.00237
1.00354
1.00375
1.00284
1.00334
1.00468
1.00349
1.00252
1.00553
1.00564
1.00347
1.00566
1.00824
1.00919
0.992217
1.00576
0.997252
0.990075
0.997335
0.999964
0.995241
0.995159
0.998506
0.997654
0.99479
0.996999
0.998731
0.997463
0.997399
0.998807
0.998516
0.997086
0.997235
0.9979
0.997239
0.997133
0.998371
0.998896
0.999742
1.00144
1.00227
1.00315
1.00441
1.00372
1.00213
1.00241
1.00248
1.00069
1.00052
1.00293
1.00301
1.00129
1.00329
1.00595
1.00211
1.00116
1.00608
1.00516
0.99894
1.00408
1.01197
1.00071
0.996259
1.02187

VECTORS velocity double
1.6307e-16 2.77565e-17 0
-1.24904e-16 -3.12261e-17 0
1.07557e-16 -5.89826e-17 0
2.15113e-16 -3.81652e-17 0
1.17965e-16 -1.76948e-16 0
1.07557e-16 -1.17965e-16 0
-1.24904e-16 -2.25522e-16 0
2.70626e-16 -7.63305e-17 0
1.596e-16 -1.73478e-17 0
-1.38783e-17 -1.14496e-16 0
2.08174e-17 -1.80417e-16 0
1.70009e-16 1.04087e-16 0
6.59218e-17 7.63305e-17 0
2.70626e-16 2.49809e-16 0
2.18583e-16 2.18583e-16 0
4.57983e-16 -2.28991e-16 0
3.46957e-17 -8.67392e-17 0
1.35313e-16 6.93913e-18 0
3.46957e-17 -6.93913e-17 0
-3.12261e-17 0 0
2.28991e-16 -4.85739e-17 0
1.04087e-17 -6.59218e-17 0
-1.00617e-16 1.04087e-17 0
4.16348e-17 -5.55131e-17 0
0 8.67392e-17 0
-1.52661e-16 -1.35313e-16 0
-4.16348e-17 2.08174e-17 0
-1.70009e-16 -1.07557e-16 0
-1.38783e-17 -1.31844e-16 0
1.73478e-17 8.32696e-17 0
-2.4287e-16 -2.08174e-16 0
-2.01235e-16 -9.36783e-17 0
-2.08174e-17 2.4287e-17 0
-2.81035e-16 2.77565e-17 0
-1.66539e-16 -1.49191e-16 0
-1.90826e-16 1.66539e-16 0
-2.28991e-16 7.28609e-17 0
-3.81652e-17 -1.04087e-17 0
-8.32696e-17 7.28609e-17 0
-2.94913e-16 1.04087e-17 0
1.04087e-16 -1.73478e-17 0
-9.36783e-17 -1.66539e-16 0
-1.87357e-16 3.12261e-17 0
-2.77565e-16 1.31844e-16 0
-2.08174e-16 1.07557e-16 0
-1.56131e-16 7.28609e-17 0
-2.18583e-16 2.08174e-17 0
1.73478e-17 -6.24522e-17 0
-3.36548e-16 2.394e-16 0
2.01235e-16 1.21435e-16 0
-1.14496e-16 -2.08174e-17 0
-5.20435e-17 6.93913e-18 0
1.14496e-16 2.08174e-16 0
4.30226e-16 2.4287e-17 0
2.394e-16 1.14496e-16 0
1.70009e-16 -3.2267e-16 0
0 -8.67392e-17 0
2.04704e-16 5.89826e-17 0
2.67157e-16 -7.63305e-17 0
2.18583e-16 -3.46957e-18 0
3.85122e-16 3.08791e-16 0
2.91444e-16 2.11644e-16 0
3.40018e-16 3.53896e-16 0
4.8227e-16 3.12261e-17 0
4.8227e-16 2.08174e-16 0
4.09409e-16 2.15113e-16 0
4.33696e-16 2.32461e-16 0
1.28374e-16 -7.28609e-17 0
1.76948e-16 -3.46957e-18 0
2.87974e-16 -1.31844e-16 0
3.43487e-16 -6.93913e-18 0
2.394e-16 1.31844e-16 0
2.4287e-16 7.98e-17 0
1.73478e-17 -8.32696e-17 0
2.70626e-16 1.35313e-16 0
-6.93913e-17 2.4287e-17 0
6.24522e-17 -2.46339e-16 0
7.98e-17 2.18583e-16 0
-2.4287e-17 9.71479e-17 0
3.81652e-17 2.04704e-16 0
-1.07557e-16 -4.16348e-17 0
-4.0247e-16 -1.45722e-16 0
-2.4287e-16 7.28609e-17 0
-2.70626e-16 8.32696e-17 0
-4.51044e-16 -5.55131e-17 0
-3.46957e-16 2.60218e-16 0
-1.52661e-16 -6.93913e-18 0
-3.43487e-16 2.77565e-16 0
-1.31844e-16 7.63305e-17 0
-2.28991e-16 1.56131e-16 0
-1.66539e-16 8.67392e-17 0
-1.17965e-16 1.73478e-16 0
-2.56748e-16 2.49809e-16 0
-2.4287e-16 2.4287e-16 0
-5.20435e-16 3.88592e-16 0
-4.26757e-16 1.596e-16 0
-4.05939e-16 1.42252e-16 0
-8.67392e-17 3.192e-16 0
-5.89826e-17 -6.93913e-18 0
-1.35313e-16 7.63305e-17 0
-1.6307e-16 -2.67157e-16 0
-2.25522e-16 -1.76948e-16 0
-2.15113e-16 -2.81035e-16 0
4.0247e-16 -1.596e-16 0
1.45722e-16 -1.83887e-16 0
6.59218e-17 -1.56131e-16 0
1.6307e-16 -1.38783e-16 0
1.73478e-17 1.73478e-17 0
2.67157e-16 -1.38783e-17 0
4.09409e-16 1.76948e-16 0
4.16348e-16 -2.01235e-16 0
1.94296e-16 -3.81652e-17 0
3.71244e-16 7.63305e-17 0
1.83887e-16 1.76948e-16 0
4.16348e-17 -1.17965e-16 0
3.15731e-16 -3.12261e-17 0
1.97765e-16 1.38783e-17 0
1.31844e-16 -5.20435e-17 0
5.89826e-17 -4.16348e-17 0
1.70009e-16 -8.67392e-17 0
5.44722e-16 -1.70009e-16 0
3.81652e-16 -1.52661e-16 0
1.56131e-16 -3.12261e-16 0
-8.32696e-17 -3.01852e-16 0
1.28374e-16 -2.15113e-16 0
4.85739e-17 -1.00617e-16 0