# vtk DataFile Version 4.0
SiwiRVisFile
ASCII
DATASET STRUCTURED_POINTS
DIMENSIONS 25 25 1
ORIGIN 0 0 0
SPACING 1 1 1
POINT_DATA 625

SCALARS flags double 1
LOOKUP_TABLE default
1
1
1
1
1
1
1
1
1
1
1
1
1
1
1
1
1
1
1
1
1
1
1
1
1
1
1
1
1
1
1
1
1
1
1
1
1
1
1
1
1
1
1
1
1
1
1
1
1
1
1
1
1
1
1
1
1
1
1
1
1
1
1
1
1
1
1
1
1
1
1
1
1
1
1
1
1
1
1
1
1
1
1
1
1
1
1
1
1
1
1
1
1
1
1
1
1
1
1
1
1
1
1
1
1
1
1
1
1
1
1
1
1
1
1
1
1
1
1
1
1
1
1
1
1
1
1
1
1
1
1
1
1
1
1
1
1
1
1
1
1
1
1
1
1
1
1
1
1
1
1
1
1
1
1
1
1
1
1
1
1
1
1
1
1
1
1
1
1
1
1
1
1
1
1
1
1
1
1
1
1
1
1
1
1
1
1
1
1
1
1
1
1
1
1
1
1
1
1
1
1
1
1
1
1
1
1
1
1
1
1
1
1
1
1
1
1
1
1
1
1
1
1
1
1
1
1
1
1
1
1
1
1
1
1
1
1
1
1
1
1
1
1
1
1
1
1
1
1
1
1
1
1
1
1
1
1
1
1
1
1
1
1
1
1
1
1
1
1
1
1
1
1
1
1
1
1
1
1
1
1
1
1
1
1
1
1
1
1
1
1
1
1
1
1
1
1
1
1
1
1
1
1
1
1
1
1
1
1
1
1
1
1
1
1
1
1
1
1
1
1
1
1
1
1
1
1
1
1
1
1
1
1
1
1
1
1
1
1
1
1
1
1
1
1
1
1
1
1
1
1
1
1
1
1
1
1
1
1
1
1
1
1
1
1
1
1
1
1
1
1
1
1
1
1
1
1
1
1
1
1
1
1
1
1
1
1
1
1
1
1
1
1
1
1
1
1
1
1
1
1
1
1
1
1
1
1
1
1
1
1
1
1
1
1
1
1
1
1
1
1
1
1
1
1
1
1
1
1
1
1
1
1
1
1
1
1
1
1
1
1
1
1
1
1
1
1
1
1
1
1
1
1
1
1
1
1
1
1
1
1
1
1
1
1
1
1
1
1
1
1
1
1
1
1
1
1
1
1
1
1
1
1
1
1
1
1
1
1
1
1
1
1
1
1
1
1
1
1
1
1
1
1
1
1
1
1
1
1
1
1
1
1
1
1
1
1
1
1
1
1
1
1
1
1
1
1
1
1
1
1
1
1
1
1
1
1
1
1
1
1
1
1
1
1
1
1
1
1
1
1
1
1
1
1
1
1
1
1
1
1
1
1
1
1
1
1
1
1
1
1
1
1
1
1
1
1
1
1
1
1
1
1
1
1
1
1
1
1
1
1
1
1
1
1
1
1
1
1
1
1
1
1
1
1
1
1
1
1
1
1
1
1
1
1
1
1
1
1
1
1
1
1
1
1

SCALARS density double 1
LOOKUP_TABLE default
0.999763
0.999769
0.999851
0.999734
0.999648
0.999841
0.999843
0.999579
0.999719
1.00004
0.999777
0.999617
1.00007
1.00011
0.999695
0.999939
1.00034
0.999989
0.999869
1.00041
1.00036
0.999945
1.0003
1.0006
1.00015
1.00004
0.9995
0.999668
1.00006
0.999731
0.999525
0.99984
0.999918
0.999667
0.999729
0.999927
0.999894
0.999842
0.999896
0.999972
1.00006
1.00003
0.999972
1.00015
1.0003
1.00014
1.00008
1.0004
1.00042
1.0001
0.999698
0.999893
0.999751
0.999683
0.999841
0.999763
0.999642
0.999878
0.999884
0.999618
0.999855
1.00009
0.999744
0.999762
1.00021
1.00001
0.999726
1.00021
1.00036
0.999857
1.00011
1.00061
1.00017
0.999917
1.00054
0.999571
1.00007
0.99984
0.999435
0.999767
1.00003
0.999707
0.999574
0.999917
0.999976
0.999725
0.999767
1.00001
0.999992
0.999829
0.999907
1.00012
1.00011
0.999995
1.0001
1.00029
1.00027
1.00016
1.00024
1.00037
0.999971
0.999412
0.999654
0.999958
0.999718
0.999639
0.999934
0.999782
0.999666
0.999974
0.999896
0.999692
0.999992
1.00004
0.999719
0.999952
1.00023
0.999843
0.999894
1.00053
1.00023
0.999798
1.00042
1.00066
0.999905
0.999689
0.999293
0.999663
1.00005
0.999767
0.999518
0.99983
1.00004
0.999709
0.999624
0.999993
1.00006
0.999751
0.999782
1.0001
0.99998
0.999756
1.00003
1.00025
1.00009
1.00012
1.00036
1.00029
1.0002
1.00033
0.999111
1.00008
0.999631
1
0.99984
1.00004
0.999484
0.999631
1.00004
0.99982
0.999792
1.00002
0.999857
0.99981
1.00008
0.999922
0.999717
1
1
1
1.00025
1.00074
1.00005
0.999854
1.00074
0.999523
0.99958
0.99928
1
0.999714
0.999845
0.999618
0.999459
0.999881
1.00014
0.99983
0.9997
1.00008
1.0001
0.999667
0.999829
1.00019
1
1
1
1.00039
1
1.00041
1.00052
1.00004
0.999718
0.998367
0.999138
1
0.999407
0.99897
0.999993
0.99992
1
0.99993
1.00006
0.999855
0.999875
0.999965
0.999869
1.00003
1.00004
1
1
1
1.00028
0.999798
1.00059
1.0008
0.999828
0.998729
0.999362
0.9994
1
0.999525
0.999468
0.9993
0.99946
0.999656
0.999725
0.999935
1.00014
0.999784
0.999759
1.00025
1.00002
0.999614
1.00033
1.00061
0.999818
1.00028
1.00094
1.00004
0.999911
1.00089
0.998652
1.00008
0.999047
0.997885
0.999305
1.0001
0.998914
0.998982
1.00019
0.999914
0.999571
0.999886
1.00011
0.999995
0.999947
0.999904
1.00005
1.00035
1.00024
0.999869
1.00047
1.00079
1.00006
0.999878
1.0008
0.999761
0.998272
0.998608
0.999781
0.998837
0.998612
0.999535
1
0.999591
0.999494
1
0.999817
0.999989
1.0001
0.999695
1.00004
1.00055
0.999781
0.999841
1.00101
1.00028
0.999456
1.00094
1.001
0.999337
0.999125
0.997843
0.998978
0.999974
0.998682
0.997998
0.999278
0.999886
0.998407
1
1.00012
0.999995
0.999697
0.999905
1.00015
1.0001
0.999982
0.999985
1.0003
1.00049
1.0002
1.00006
1.00049
1.00079
1.00015
0.997795
1.00034
0.999236
0.997344
0.999251
1.00004
0.998105
0.998534
0.999484
0.999756
0.999589
0.999908
0.999925
0.999817
1.00021
0.999963
0.999592
1.00064
1.00058
0.999222
1.0005
1.00162
0.999434
0.99941
1.00194
0.999
0.999528
0.998557
0.998194
0.999051
0.999338
0.998495
0.998456
0.99963
0.999877
0.9994
0.999655
1.00022
0.999956
0.999633
1.00002
1.00027
1.0001
0.999983
1.00035
1.00033
1.00037
1.00067
1.00016
1.00008
1.00013
0.996508
0.9984
1.00093
0.99804
0.997024
1.00012
1
0.999243
0.999103
1
0.999898
0.999685
1.00004
0.999849
0.999946
1.00035
0.999508
0.999805
1.0017
1.00002
0.998702
1.00177
1.00186
0.998323
0.997779
0.998652
0.999151
0.998463
0.998586
0.99868
0.998427
1
0.999501
0.999617
0.999911
1
0.999518
0.999895
1.0003
0.999663
0.99959
1.00028
1.00038
0.9998
1.00071
1.00105
0.999544
1.00049
1.00197
0.997142
1.00168
0.998846
0.995771
0.99952
1.00074
0.996722
1
1.00029
0.999996
0.998904
0.999906
1.00036
0.999536
0.999638
1.00014
0.999713
1.00007
1
0.998531
1.0009
1.00278
0.998976
0.998574
1.00311
1.00044
0.997081
0.997668
1.00009
0.99825
0.997457
0.999434
1
0.999614
0.999816
0.999643
0.999716
1.00002
0.99981
0.999384
1.00007
1.00012
0.999502
1
1.00188
0.999729
0.998949
1.00268
1.0015
0.997438
0.999569
0.994729
0.99839
1.00153
0.997651
0.99648
1.00011
1
0.998935
0.999199
1.00063
0.999554
0.999038
1.00045
1.00027
0.998887
1
1
1
1.00214
1.0003
0.998095
1.00221
1.00306
0.997967
0.994664
1.00173
0.99955
0.994716
0.998899
1.00067
0.997484
0.998167
1.00027
0.999787
0.999651
0.9998
0.999755
0.999435
1.00029
1
1
1
1
1
1
1
1
0.999398
1.00737
0.998535
1.00186
0.997208
0.995169
0.999124
1.00014
0.997618
0.998716
1.00044
0.999622
0.998698
1.00003
1.00087
0.998876
0.99903
1.00124
1
1
1
1
1.0054
1.01162
1.00231
1.00186
1.0085
1.00191
0.989428
0.996279
1.00419
1
0.996058
1.00023
1.00022
0.998177
0.999911
1
0.999677
0.999666
1.00084
0.998958
0.998453
1.00227
0.998282
1.00005
1.01054
1.00636
0.995926
1.00653
1.0152
0.999052
0.993255
0.995403
0.999738
0.99884
0.995379
0.997595
0.999306
0.998808
0.999711
1.0017
1.00111
1.00672
1
1.00053
1.00132
0.998302
1
1.00009
1.00379
1.007
1.00265
1.00122
1.00843
1.00793
1.0046
0.993478
1.00901
0.998214
0.991514
0.999244
1.00035
0.996718
0.998108
1.00101
1.00102
1.00271
1.00806
1.00214
0.994779
0.999544
1.00309
1.00161
1.00712
1.0065
0.99578
1.00341
1.01546
1.00119
0.993411
1.02481

VECTORS velocity double
6.42871e-06 1.29653e-05 0
-0.000145073 0.000103849 0
-0.000271 1.69299e-05 0
-0.00026352 -4.60029e-06 0
-0.000248976 3.3721e-05 0
-0.000436112 0.000107276 0
-0.000535447 -1.41507e-05 0
-0.000477728 -1.64201e-05 0
-0.000493221 5.04535e-05 0
-0.000611728 2.7111e-05 0
-0.000582393 -3.04625e-05 0
-0.000536897 1.04925e-05 0
-0.000533965 1.32109e-05 0
-0.000553224 3.16323e-06 0
-0.00053178 1.5521e-05 0
-0.00052437 4.95773e-06 0
-0.000483769 -2.70562e-06 0
-0.00050535 2.6924e-05 0
-0.000542996 3.43585e-05 0
-0.000465844 -7.31604e-05 0
-0.000312888 -5.88192e-06 0
-0.00031764 2.81773e-05 0
-0.000262645 -2.11767e-05 0
-0.000125773 -5.22676e-05 0
-7.23768e-06 1.15156e-05 0
-8.6244e-05 0.000167338 0
-0.000407395 0.000409869 0
-0.000608308 0.000118937 0
-0.000748315 7.87293e-05 0
-0.00108514 0.0003058 0
-0.00131221 0.000256718 0
-0.00122308 -8.98549e-06 0
-0.00136209 9.36098e-05 0
-0.00161894 0.000185878 0
-0.00158289 -5.94446e-06 0
-0.00139717 -7.8373e-05 0
-0.00151155 8.50453e-05 0
-0.00153911 -2.23295e-05 0
-0.00129527 -7.73345e-05 0
-0.00123683 9.28526e-05 0
-0.00147188 7.66171e-05 0
-0.00146168 -5.18288e-05 0
-0.00128165 2.22686e-05 0
-0.00126733 7.74015e-05 0
-0.00132996 -0.000177815 0
-0.00105663 -0.000206234 0
-0.000678343 -8.34722e-05 0
-0.000485512 -0.00010041 0
-0.000352115 -0.00023291 0
-9.84209e-05 -9.27278e-05 0
-0.000112341 0.000498452 0
-0.000289426 0.000600334 0
-0.000663168 0.000550681 0
-0.00133988 0.000494604 0
-0.0015544 0.000516576 0
-0.00146688 0.000260894 0
-0.00172118 0.000245416 0
-0.00214358 0.000328185 0
-0.00207134 0.000148842 0
-0.00200956 -1.40807e-05 0
-0.00214258 -5.92557e-05 0
-0.00199338 -2.05034e-05 0
-0.00174744 -0.00010229 0
-0.00183319 -9.265e-05 0
-0.00181384 9.13743e-05 0
-0.00161887 0.000135541 0
-0.00170012 4.41848e-05 0
-0.00188711 -3.75946e-05 0
-0.00164148 -7.02756e-05 0
-0.00144082 -0.000164131 0
-0.0014358 -0.000462502 0
-0.00111283 -0.000542027 0
-0.000537472 -0.000337405 0
-0.000271246 -0.000323235 0
-9.35834e-05 -0.000324413 0
7.7623e-05 0.000600141 0
-0.000391234 0.00108816 0
-0.00129932 0.00128032 0
-0.00168583 0.00086613 0
-0.00147296 0.000421894 0
-0.00162899 0.000491284 0
-0.00211732 0.000659657 0
-0.00236276 0.000527709 0
-0.00235964 0.000103839 0
-0.00249613 4.70771e-05 0
-0.00253129 -8.90853e-05 0
-0.00219557 -0.000291723 0
-0.00190596 -0.000184962 0
-0.00193168 -6.75678e-05 0
-0.00182266 -3.41545e-05 0
-0.00162829 0.000101775 0
-0.00173949 0.000238074 0
-0.00204383 2.18709e-05 0
-0.0019604 -0.000276454 0
-0.00155318 -0.000375391 0
-0.00130298 -0.000546642 0
-0.00121511 -0.000878931 0
-0.000772237 -0.000866411 0
-0.000216822 -0.00060404 0
3.63591e-05 -0.000375064 0
-0.000140815 0.000723292 0
-0.00111243 0.00238319 0
-0.00166408 0.00158091 0
-0.00120314 0.000636199 0
-0.00114624 0.000491885 0
-0.00180899 0.00112089 0
-0.00216789 0.0008848 0
-0.00234191 0.000716746 0
-0.00280878 0.000415312 0
-0.00286632 -6.22644e-05 0
-0.00243706 -0.000364683 0
-0.00229917 -0.000460922 0
-0.00217164 -0.000398602 0
-0.00175164 -0.000266239 0
-0.00155414 -8.21717e-05 0
-0.00171601 0.000135644 0
-0.00155084 0.000263413 0
-0.00128417 0.000162618 0
-0.00153251 -0.000207958 0
-0.00172975 -0.000806565 0
-0.00136976 -0.00075198 0
-0.00105353 -0.000960375 0
-0.000855718 -0.00130514 0
-0.000473733 -0.00120011 0
-5.18983e-05 -0.000341591 0
-0.000382251 0.00152504 0
-0.000943399 0.00299283 0
-0.000998848 0.00147356 0
-0.000759131 0.00017885 0
-0.000626177 0.000848256 0
-0.000964489 0.00168092 0
-0.00176467 0.0015709 0
-0.00285351 0.00119597 0
-0.00330739 0.000577312 0
-0.00289671 -0.000358025 0
-0.00233136 -0.000701285 0
-0.00217103 -0.000631005 0
-0.00201753 -0.000665906 0
-0.00168937 -0.000520817 0
-0.00128567 -0.000285767 0
-0.000960559 -1.99693e-05 0
-0.000781796 0.000156075 0
-0.000662505 0.000105267 0
-0.000599171 -5.19787e-05 0
-0.000900877 -0.000513017 0
-0.00114623 -0.000947541 0
-0.000834508 -0.0014263 0
-0.000502709 -0.00136589 0
-0.000566952 -0.00135994 0
-0.000264995 -0.000771445 0
-0.000109264 0.0022802 0
-0.000201185 0.00264958 0
-7.41338e-05 0.00155342 0
0 0 0
-0.000173518 0.00119209 0
-0.000799591 0.00216231 0
-0.00196984 0.00301104 0
-0.00285444 0.00193664 0
-0.00259806 0.000238357 0
-0.00241959 -0.00068915 0
-0.0024921 -0.000983373 0
-0.00207727 -0.000967986 0
-0.00158737 -0.000859967 0
-0.00155963 -0.000773978 0
-0.00133603 -0.000733643 0
-0.000789006 -0.000387899 0
-0.000230192 -0.000183905 0
0 0 0
0 0 0
0 0 0
-0.000507255 -0.000678457 0
-0.000855783 -0.00183289 0
-0.000365331 -0.00158126 0
-9.40619e-05 -0.0011865 0
-2.68954e-05 -0.00117317 0
0.000394885 0.00186338 0
0.000212445 0.00315848 0
-0.000148273 0.00145893 0
0 0 0
-0.000123128 0.00151692 0
-0.00103121 0.00340064 0
-0.00173738 0.00356561 0
-0.00164078 0.00211477 0
-0.00136409 -1.69764e-05 0
-0.00131882 -0.0007647 0
-0.00150566 -0.000984493 0
-0.00169475 -0.00109606 0
-0.00183894 -0.000955757 0
-0.00173606 -0.00111474 0
-0.00126017 -0.00106203 0
-0.000665889 -0.000911316 0
-0.000146084 -0.000677825 0
0 0 0
0 0 0
0 0 0
-4.52783e-05 -0.000356427 0
-0.000462737 -0.00125538 0
-0.00054755 -0.00221799 0
6.513e-05 -0.00172815 0
0.00025424 -0.000815652 0
-0.000223577 0.00156556 0
-0.000335029 0.00376281 0
-6.8924e-05 0.001118 0
0 0 0
-0.000100785 0.00183821 0
-0.00065619 0.00466799 0
-0.000798258 0.00313558 0
-0.00028257 0.00146187 0
0 0 0
-0.000490056 -0.000249865 0
-0.0012695 -0.000487545 0
-0.00190332 -0.000772361 0
-0.00202976 -0.00103479 0
-0.00145722 -0.00148238 0
-0.00116894 -0.00131046 0
-0.0013243 -0.0015143 0
-0.000641673 -0.00125484 0
0 0 0
0 0 0
0 0 0
2.6702e-05 -0.0002081 0
7.82745e-05 -0.000928743 0
-0.000157455 -0.0022135 0
-0.000487184 -0.00214863 0
-0.000218173 -0.000687614 0
-0.000278046 0.00229086 0
-5.35019e-05 0.00291661 0
0.000252792 0.00117296 0
0 0 0
-0.000823008 0.00264697 0
-0.00177442 0.00446409 0
-0.00157182 0.00322879 0
-0.00129116 0.00108997 0
-0.00135959 0.000149085 0
-0.00132619 0.000154755 0
-0.00165981 0.000433237 0
-0.00214249 -0.000610673 0
-0.00200688 -0.0013226 0
-0.00207576 -0.00154824 0
-0.00211816 -0.0015423 0
-0.00179665 -0.00179109 0
-0.0019016 -0.00127621 0
-0.00186673 -0.000702445 0
-0.00108092 -0.000198529 0
-0.000898097 2.01632e-05 0
-0.000718566 -0.000199125 0
-1.05092e-05 -0.00178218 0
0.00026243 -0.00142752 0
-0.000393826 -0.00151296 0
-0.000357587 -0.00155486 0
0.000288339 0.00224712 0
0.000582361 0.0022839 0
0.000227597 0.00169596 0
-0.00135186 0.00122939 0
-0.00203817 0.00350893 0
-0.00204884 0.00444863 0
-0.00262611 0.00358951 0
-0.00237132 0.000608905 0
-0.00140643 -0.000308508 0
-0.00183329 0.000604555 0
-0.00243997 0.000516107 0
-0.00161692 -0.000900198 0
-0.0014034 -0.00118475 0
-0.00242641 -0.00109561 0
-0.00297795 -0.00156007 0
-0.00275991 -0.00173514 0
-0.00305691 -0.000855684 0
-0.00363139 -0.00121008 0
-0.00295452 -0.000791122 0
-0.00178245 -0.000610075 0
-0.00120425 -0.000494638 0
-0.00124948 -0.00216216 0
-0.000584012 -0.00172105 0
0.000295787 -0.00134699 0
0.000304609 -0.00156971 0
0.000401751 0.00116079 0
2.20459e-05 0.00351978 0
-0.000992433 0.00236371 0
-0.00140828 0.00195642 0
-0.00247721 0.0041669 0
-0.0035904 0.00514375 0
-0.00179841 0.00192598 0
0 0 0
-0.00109233 0.00028965 0
-0.00110426 0.000529499 0
0 0 0
-0.00106088 -0.000414872 0
-0.00253178 -0.000422775 0
-0.00258093 -0.000827825 0
-0.0025907 -0.00111751 0
-0.00368351 -0.00117308 0
-0.00398059 -0.00113403 0
-0.00342328 -0.000815918 0
-0.00378763 -0.00105175 0
-0.00363937 -0.00200772 0
-0.00197463 -0.0013264 0
-0.00147656 -0.00164309 0
-0.00141979 -0.00300573 0
-0.000368941 -0.00280018 0
0.000293384 -0.00072556 0
-0.000660144 0.00144183 0
-0.000851377 0.00381011 0
-0.000654067 0.00315255 0
-0.0024457 0.00309719 0
-0.00365677 0.00465849 0
-0.00204502 0.00395978 0
-0.000861538 0.000311672 0
-0.00214087 0.00044746 0
-0.00150203 -5.13939e-05 0
0 0 0
-0.000635168 0.000569905 0
-0.00183165 0.000815493 0
-0.00244709 0.000174527 0
-0.00250087 -0.00076066 0
-0.00303898 -0.000457549 0
-0.00412271 -0.000444872 0
-0.00441444 -0.0012935 0
-0.0039087 -0.000896228 0
-0.00382063 -0.00116657 0
-0.00413147 -0.0022739 0
-0.00328232 -0.00258656 0
-0.00157666 -0.00250413 0
-0.00112151 -0.00252383 0
-0.00191559 -0.00311938 0
-0.000975064 -0.0015124 0
-0.000259449 0.0027806 0
-0.000338973 0.0023779 0
-0.00082508 0.00418724 0
-0.00277285 0.00573175 0
-0.00332485 0.0040446 0
-0.00321298 0.00251122 0
-0.005013 0.00207553 0
-0.00513151 3.04388e-05 0
-0.00347513 -0.00176528 0
-0.00329386 -0.000458646 0
-0.0034494 0.00146148 0
-0.00303109 0.00114014 0
-0.00227433 3.08399e-05 0
-0.0029455 -4.95043e-05 0
-0.00376691 8.25448e-05 0
-0.00321953 -0.000331138 0
-0.00385257 -0.000286798 0
-0.00533163 -0.00123949 0
-0.00442176 -0.00198246 0
-0.00344627 -0.00165247 0
-0.00416903 -0.00330359 0
-0.00348112 -0.0050907 0
-0.00119918 -0.00259686 0
-0.000545454 -0.00259682 0
-0.000221984 -0.00352531 0
0.000501622 0.00235115 0
-0.000546528 0.00379186 0
-0.00242009 0.00555241 0
-0.00235546 0.00577876 0
-0.00219781 0.00449562 0
-0.00373858 0.00403616 0
-0.00444584 0.00295037 0
-0.00494822 -0.000391245 0
-0.00509374 -0.00232283 0
-0.00449791 -0.0009357 0
-0.00406121 0.00108786 0
-0.00326086 0.000132641 0
-0.00267942 -0.000432662 0
-0.00271045 0.000424481 0
-0.002885 0.000300152 0
-0.00308023 -0.000154894 0
-0.00400642 0.000814304 0
-0.0049859 -0.00102141 0
-0.00507676 -0.00212772 0
-0.00390336 -0.00295591 0
-0.00300719 -0.00292407 0
-0.00389493 -0.00484897 0
-0.00298865 -0.00503078 0
-0.000231025 -0.00396393 0
0.000756524 -0.00238883 0
-4.81868e-05 0.00157686 0
-0.00136874 0.00678775 0
-0.00212963 0.00583216 0
-0.00155715 0.00419554 0
-0.00215584 0.00597387 0
-0.00338118 0.00571236 0
-0.00180021 0.000902006 0
0 0 0
-0.00185101 -0.00131135 0
-0.00306024 -0.00112817 0
-0.00154105 -0.000263529 0
-0.00112051 -0.000332893 0
-0.00183669 9.88563e-05 0
-0.00156317 7.41951e-05 0
-0.00160955 0.000540469 0
-0.003388 0.00125911 0
-0.00354485 0.000693047 0
-0.00218361 -0.000563529 0
-0.00445162 -0.000559055 0
-0.00638131 -0.00505954 0
-0.0041018 -0.00368486 0
-0.00288121 -0.00377622 0
-0.00354796 -0.00687414 0
-0.00292347 -0.00732635 0
-0.00052618 -0.00237706 0
-0.00158643 0.00390985 0
-0.00171972 0.00545761 0
-8.6829e-05 0.00550932 0
-0.00191097 0.0062768 0
-0.00261608 0.00545436 0
-0.000196227 0.00348892 0
0.000653127 0.00049857 0
0 0 0
0.00026058 -0.000310782 0
-6.59941e-06 -0.000984137 0
-0.000236348 -0.00118641 0
0 0 0
-0.000416344 0.000501981 0
-0.00131961 0.000442734 0
-0.00196791 0.00111747 0
-0.00189259 0.00172755 0
-0.00155371 -5.45869e-05 0
-0.00175004 0.000452004 0
-0.00229266 0.000339821 0
-0.00359535 -0.00304629 0
-0.00523577 -0.00471558 0
-0.00373531 -0.0064577 0
-0.00208396 -0.00461646 0
-0.0038855 -0.00643877 0
-0.00219285 -0.00586578 0
0.00071613 0.00524435 0
0.000535627 0.00389419 0
-0.00191028 0.00692133 0
-0.00415612 0.00844904 0
-0.00305764 0.00370233 0
-0.00108601 0.00100683 0
-0.000223268 0.00116622 0
0 0 0
-0.00023563 -0.000418394 0
-0.000578301 -0.000880301 0
-0.00125886 -0.000563982 0
-0.00121881 -0.000109961 0
-0.000371214 0.000249233 0
-0.000891681 0.00166535 0
-0.00127278 0.00160382 0
-0.000236939 0.000499105 0
-0.000506029 0.000153217 0
-0.000905697 0.000615646 0
0 0 0
-0.000236022 1.65042e-05 0
-0.0038996 -0.00313719 0
-0.00661125 -0.0089224 0
-0.00369221 -0.00586334 0
-0.000267218 -0.00722293 0
0.00109462 -0.00824624 0
0.00085969 0.00278458 0
-0.00233662 0.00956667 0
-0.00612643 0.0092539 0
-0.0040793 0.00536583 0
-0.00239108 0.00328396 0
-0.00278446 0.000939726 0
-0.00131449 -0.00118982 0
0 0 0
-0.000549988 0.000681516 0
-0.00123199 -0.000770103 0
-0.00161506 -0.00024165 0
-0.00238579 -0.000419944 0
-0.00266042 7.65203e-05 0
-0.00114212 0.000624686 0
0.000212857 0.00101991 0
-0.000139738 0.000830039 0
-0.000170322 0.000295867 0
1.86198e-05 -3.27017e-05 0
0 0 0
0.000131344 0.000514123 0
-0.000305224 -0.000285292 0
-0.00330626 -0.00412869 0
-0.00631989 -0.00954538 0
-0.00350196 -0.0130147 0
0.000819526 -0.0051203 0
-0.00197364 0.00434871 0
-0.00476757 0.0134797 0
-0.00401328 0.00872278 0
-0.00539705 0.00523195 0
-0.00975955 0.00411064 0
-0.00958557 -0.000421965 0
-0.00381439 -0.00537274 0
0 0 0
-0.00187014 0.00219106 0
-0.00372811 0.000439765 0
-0.00267156 -0.000965003 0
-0.00156458 0.000295405 0
-0.00195418 0.000242849 0
-0.00174243 -0.00095694 0
-0.000869731 -0.000605475 0
-0.000164448 0.00182647 0
0 0 0
0 0 0
0 0 0
5.45289e-05 4.90526e-05 0
0.000544187 8.78254e-05 0
0.000265505 -0.000295925 0
-0.00598655 -0.00602879 0
-0.0104151 -0.0167386 0
-0.00332657 -0.00967232 0
-0.00252831 0.0110115 0
-0.00240526 0.00862997 0
-0.00164459 0.00994555 0
-0.00833885 0.0134113 0
-0.00903162 0.00261343 0
-0.00594139 -0.00309152 0
-0.00904585 -0.00678538 0
-0.00932766 -0.0024203 0
-0.00331339 9.96315e-05 0
-0.00185244 0.00243379 0
-0.00465796 -0.00203568 0
-0.00394672 -0.000829999 0
-0.00134608 -0.00169303 0
-0.000477315 0.000541517 0
-0.00205028 -0.000861289 0
-0.000953147 1.5158e-05 0
0 0 0
0 0 0
0 0 0
0 0 0
0 0 0
0 0 0
0 0 0
-0.00469998 -0.0109485 0
-0.00382054 -0.0208935 0
0.0035847 0.00951782 0
-0.00114343 0.0130975 0
-0.010901 0.014787 0
-0.0105079 0.0137189 0
-0.00548467 0.000634073 0
-0.00424439 -0.00215671 0
-0.00886218 -0.00261617 0
-0.0109665 -0.00507411 0
-0.00799224 -0.00356335 0
-0.00463045 0.00185634 0
-0.00311318 -0.000928987 0
-0.00213033 -0.00195975 0
-0.000730868 -0.00420376 0
0.00171792 -0.000146205 0
0.00106829 0.000924863 0
0.000144999 -0.00122414 0
0 0 0
0 0 0
0 0 0
0 0 0
-0.00431139 0.00347467 0
-0.0109251 8.61774e-05 0
-0.00820378 -0.00164916 0
0.00312526 -0.0164718 0
0.00757123 -0.0172964 0
-0.00262898 0.0076821 0
-0.0133804 0.0291889 0
-0.0103882 0.0117172 0
3.13996e-05 0.00508005 0
0 0 0
-0.00187394 0.000114555 0
-0.00202089 -0.000107023 0
-0.00321264 -0.00410288 0
-0.0064048 -0.00515355 0
-0.00261291 -0.004663 0
0 0 0
0.000480232 -0.00493858 0
-0.00240184 -0.00269066 0
-0.00194139 -0.00354468 0
0.00168174 0.00137965 0
-0.000134478 0.00210045 0
-0.00502041 -0.00041332 0
-0.00183261 -0.00204502 0
-0.000247567 0.00212293 0
-0.00721548 0.00533465 0
-0.00802421 0.00626045 0
-0.00457315 0.00163241 0
-0.00537983 -0.00452152 0
-0.00786803 -0.0312987 0
-0.00152547 -0.0101873 0
-0.00625146 0.0211768 0
-0.00719197 0.023118 0
0.00594047 0.00235842 0
0.015836 -0.00018016 0
0.015483 0.00421232 0
0.0117326 -0.000419104 0
0.0153999 -0.000805643 0
0.0161829 -0.0011602 0
0.00978722 -0.00124942 0
0.00587331 -0.0066794 0
0.00988644 -0.00368277 0
0.00910981 0.00129735 0
0 0 0
0.00381136 -0.00682216 0
0.00302408 -0.00124658 0
0.00290678 0.00808975 0
0 0 0
0.00414752 -0.00534199 0
0.00454164 0.00132679 0
0.00322933 0.00980759 0
0.00637366 -0.000333993 0
0.0114256 0.00175219 0
0.00775174 5.48708e-05 0
-0.00713813 -0.0222011 0
-0.00528656 -0.0221381 0
0.0234877 0.0150304 0
0.0514903 0.00340753 0
0.0541268 -0.00212392 0
0.0487408 -0.00179769 0
0.0520685 0.00351331 0
0.0558432 -0.00147007 0
0.0522803 -0.00138901 0
0.0511321 5.54346e-05 0
0.0527234 0.000865137 0
0.0521795 -0.00173642 0
0.0429943 -0.00378266 0
0.0441001 0.00324168 0
0.0492553 0.000704957 0
0.0436678 -0.00354285 0
0.0392361 0.000720187 0
0.0429398 0.00292883 0
0.0507746 0.00182113 0
0.0419565 -0.00422739 0
0.0419048 0.00282556 0
0.047116 0.00352277 0
0.0531718 -0.00118267 0
0.0467739 -0.00104473 0
0.0533857 0.00411641 0
0.0512909 -0.00390516 0
0.0283341 -0.0173988 0


