# vtk DataFile Version 4.0
SiwiRVisFile
ASCII
DATASET STRUCTURED_POINTS
DIMENSIONS 5 5 1
ORIGIN 0 0 0
POINT_DATA 25


SCALARS flags double 125
LOOKUP_TABLE default25
1
1
1
1
1
1
1
1
1
1
1
1
1
1
1
1
1
1
1
1
1
1
1
1
1

SCALARS density double 1
LOOKUP_TABLE default
4.22326e+12
7.18849e+11
-7.86288e+10
-7.39701e+09
2.55165e+10
1.15039e+13
3.932e+12
-1.55764e+11
6.72561e+10
1.71786e+09
1.56008e+13
5.57889e+12
-1.08714e+11
1.09694e+11
3.11725e+09
7.97912e+12
2.88082e+12
-6.65439e+10
2.45085e+10
4.01409e+09
-3.79279e+09
-8.89594e+09
-2.83839e+09
1.29789e+09
64.4299

VECTORS velocity double
0.0988938 -0.323904 0
-0.650102 0.124513 0
-0.789643 0.163381 0
-4.23113 2.34452 0
-1.35701 -0.111059 0
0.018407 -0.151625 0
-0.301626 0.647651 0
0.233901 1.01789 0
0.110744 0.503329 0
-1.85305 0.364624 0
0.279382 -0.146876 0
0.0513642 0.597624 0
0.282611 1.06043 0
0.0661107 0.663439 0
-0.337041 0.491199 0
0.614772 -0.143449 0
0.422828 0.614806 0
-0.225034 1.09739 0
-0.464157 0.0348765 0
0.707115 1.77733 0
0.133476 0.214373 0
0.297782 0.173553 0
-0.176735 1.6819 0
0.0254471 0.98409 0
-2.5247 2.50578 0


