# vtk DataFile Version 4.0
SiwiRVisFile
ASCII
DATASET STRUCTURED_POINTS
DIMENSIONS 25 25 1
ORIGIN 0 0 0
SPACING 1 1 1
POINT_DATA 625

SCALARS flags double 1
LOOKUP_TABLE default
1
1
1
1
1
1
1
1
1
1
1
1
1
1
1
1
1
1
1
1
1
1
1
1
1
1
1
1
1
1
1
1
1
1
1
1
1
1
1
1
1
1
1
1
1
1
1
1
1
1
1
1
1
1
1
1
1
1
1
1
1
1
1
1
1
1
1
1
1
1
1
1
1
1
1
1
1
1
1
1
1
1
1
1
1
1
1
1
1
1
1
1
1
1
1
1
1
1
1
1
1
1
1
1
1
1
1
1
1
1
1
1
1
1
1
1
1
1
1
1
1
1
1
1
1
1
1
1
1
1
1
1
1
1
1
1
1
1
1
1
1
1
1
1
1
1
1
1
1
1
1
1
1
1
1
1
1
1
1
1
1
1
1
1
1
1
1
1
1
1
1
1
1
1
1
1
1
1
1
1
1
1
1
1
1
1
1
1
1
1
1
1
1
1
1
1
1
1
1
1
1
1
1
1
1
1
1
1
1
1
1
1
1
1
1
1
1
1
1
1
1
1
1
1
1
1
1
1
1
1
1
1
1
1
1
1
1
1
1
1
1
1
1
1
1
1
1
1
1
1
1
1
1
1
1
1
1
1
1
1
1
1
1
1
1
1
1
1
1
1
1
1
1
1
1
1
1
1
1
1
1
1
1
1
1
1
1
1
1
1
1
1
1
1
1
1
1
1
1
1
1
1
1
1
1
1
1
1
1
1
1
1
1
1
1
1
1
1
1
1
1
1
1
1
1
1
1
1
1
1
1
1
1
1
1
1
1
1
1
1
1
1
1
1
1
1
1
1
1
1
1
1
1
1
1
1
1
1
1
1
1
1
1
1
1
1
1
1
1
1
1
1
1
1
1
1
1
1
1
1
1
1
1
1
1
1
1
1
1
1
1
1
1
1
1
1
1
1
1
1
1
1
1
1
1
1
1
1
1
1
1
1
1
1
1
1
1
1
1
1
1
1
1
1
1
1
1
1
1
1
1
1
1
1
1
1
1
1
1
1
1
1
1
1
1
1
1
1
1
1
1
1
1
1
1
1
1
1
1
1
1
1
1
1
1
1
1
1
1
1
1
1
1
1
1
1
1
1
1
1
1
1
1
1
1
1
1
1
1
1
1
1
1
1
1
1
1
1
1
1
1
1
1
1
1
1
1
1
1
1
1
1
1
1
1
1
1
1
1
1
1
1
1
1
1
1
1
1
1
1
1
1
1
1
1
1
1
1
1
1
1
1
1
1
1
1
1
1
1
1
1
1
1
1
1
1
1
1
1
1
1
1
1
1
1
1
1
1
1
1
1
1
1
1
1
1
1
1
1
1
1
1
1
1
1
1
1
1
1
1
1
1
1
1
1
1
1
1
1
1
1
1
1
1
1
1
1
1
1
1
1
1
1
1
1
1
1
1
1
1
1
1
1
1
1

SCALARS density double 1
LOOKUP_TABLE default
0.999883
0.999876
1
0.999911
0.999829
1.00007
1.0001
0.999821
0.999953
1.00026
0.99998
0.999803
1.00023
1.00026
0.999855
1.00011
1.00052
1.00017
1.00006
1.00059
1.00053
1.00012
1.00046
1.00074
1.00028
1.00015
0.999619
0.99981
1.00023
0.999909
0.99973
1.00007
1.00013
0.999877
0.999942
1.00012
1.00006
1.00002
1.00007
1.00013
1.00023
1.00023
1.00015
1.00033
1.0005
1.00033
1.00026
1.00057
1.00058
1.00025
0.999807
1.00003
0.999871
0.999822
1.00002
0.999933
0.99981
1.00007
1.00007
0.99979
1.00002
1.00025
0.999907
0.999937
1.00038
1.00019
0.999919
1.00042
1.00056
1.00006
1.0003
1.00079
1.00035
1.0001
1.00071
0.999677
1.00018
0.99995
0.999553
0.999889
1.00015
0.999842
0.999709
1.00005
1.0001
0.999868
0.999922
1.00015
1.00015
1.00002
1.0001
1.00032
1.00033
1.00022
1.00031
1.00049
1.00048
1.00035
1.00042
1.00055
1.00005
0.999463
0.999752
1.00005
0.999786
0.999712
1.00001
0.999842
0.999748
1.00007
0.999988
0.99981
1.00013
1.00019
0.999894
1.00015
1.00045
1.00007
1.00012
1.00075
1.00045
1.00001
1.00062
1.00086
1.00011
0.999719
0.999342
0.99972
1.00009
0.999795
0.999517
0.999818
1.00005
0.999735
0.999665
1.00004
1.00013
0.999866
0.999928
1.00025
1.00015
0.999969
1.00026
1.0005
1.00032
1.00033
1.00056
1.00049
1.0004
1.00053
0.999091
1.0001
0.99963
1
0.999785
0.999959
0.999407
0.999589
0.999978
0.999802
0.999822
1.00006
0.999919
0.999914
1.00021
1.00009
0.999898
1
1
1
1.00046
1.00095
1.00027
1.00006
1.00094
0.999461
0.999474
0.999195
1
0.999543
0.999679
0.999476
0.999334
0.999798
1.00009
0.999801
0.999705
1.00011
1.00015
0.999759
0.99995
1.00032
1
1
1
1.00059
1.0002
1.00061
1.00074
1.00027
0.999581
0.998192
0.998958
1
0.999153
0.998768
0.999793
0.999702
1
0.999839
0.999955
0.999811
0.999874
0.999986
0.999919
1.00009
1.00011
1
1
1
1.00044
0.999984
1.0008
1.00103
1.00007
0.998473
0.999139
0.999142
1
0.999239
0.999206
0.999046
0.999234
0.999449
0.999571
0.999829
1.00006
0.99972
0.999728
1.00026
1.00004
0.999639
1.00036
1.00066
0.999908
1.00042
1.00113
1.00025
1.00013
1.00113
0.998308
0.999757
0.998721
0.997566
0.999006
0.999785
0.998627
0.998761
0.999961
0.999712
0.999442
0.999768
1.00001
0.999928
0.999906
0.999897
1.00006
1.00038
1.00028
0.99997
1.00061
1.00097
1.00027
1.00012
1.00105
0.999379
0.997895
0.998237
0.999431
0.998511
0.998303
0.999243
1
0.999375
0.999294
1
0.999653
0.99986
1
0.999621
1
1.00054
0.999801
0.999897
1.00111
1.00042
0.999629
1.00115
1.00126
0.999608
0.998709
0.997455
0.998602
0.999601
0.998328
0.997711
0.999012
0.999605
0.998185
1
0.999901
0.999794
0.99954
0.999782
1.00005
1.00005
0.999966
1.00001
1.00036
1.00058
1.00034
1.00026
1.00072
1.00103
1.00042
0.997375
0.999924
0.99886
0.997006
0.998916
0.999735
0.99784
0.99827
0.999239
0.999499
0.999339
0.999696
0.999741
0.999666
1.00011
0.999908
0.999577
1.00067
1.00064
0.999324
1.00065
1.00181
0.999662
0.999651
1.00219
0.998611
0.999147
0.99819
0.997867
0.998768
0.999045
0.998216
0.998222
0.999372
0.999582
0.999139
0.999446
1.00002
0.999798
0.999552
0.999973
1.00025
1.00012
1.00006
1.00048
1.00049
1.00053
1.00088
1.00044
1.00033
0.999768
0.996194
0.998083
1.00061
0.99779
0.996796
0.999864
1
0.998941
0.998828
0.999729
0.99965
0.999506
0.999912
0.99974
0.999893
1.00038
0.99955
0.999899
1.00181
1.00016
0.998896
1.00198
1.00208
0.998582
0.997474
0.998362
0.9989
0.998221
0.998347
0.998494
0.998257
1
0.999183
0.99935
0.999627
1
0.999357
0.999764
1.00018
0.999635
0.999635
1.00033
1.00048
0.999906
1.00085
1.00126
0.999755
1.00066
1.0022
0.996934
1.00143
0.998622
0.995604
0.999336
1.00058
0.996611
1
0.999972
0.999682
0.998655
0.999688
1.00015
0.999388
0.999576
1.00011
0.999692
1.00015
1
0.998687
1.00107
1.00292
0.999164
0.998806
1.00329
1.00028
0.996913
0.997479
0.999949
0.998141
0.997339
0.999326
1
0.999363
0.999536
0.999382
0.999512
0.999832
0.999637
0.999283
1.00001
1.00013
0.999607
1
1.00205
0.999896
0.999074
1.00285
1.00174
0.997613
0.9994
0.994607
0.998291
1.0014
0.997558
0.996416
1.00003
1
0.99873
0.998999
1.00037
0.999314
0.998864
1.00029
1.00011
0.998775
1
1
1
1.00223
1.00042
0.998312
1.00239
1.00319
0.998193
0.994545
1.00163
0.999491
0.994636
0.998826
1.00063
0.997437
0.99805
1.00008
0.99959
0.999455
0.999563
0.999532
0.999255
1.00012
0.999856
1
1
1
1
1
1
1
0.999533
1.00755
0.998509
1.0018
0.997132
0.995148
0.999104
1.00007
0.997563
0.998671
1.0003
0.99941
0.998505
0.99982
1.00064
0.998674
0.998813
1.00105
1
1
1
1
1.00566
1.01169
1.00247
1.00219
1.00866
1.00188
0.989391
0.99625
1.00419
1
0.996068
1.00018
1.00014
0.998084
0.999772
1
0.999471
0.999463
1.00062
0.998726
0.998191
1.00218
0.998384
1.00024
1.0107
1.00652
0.99613
1.00672
1.01538
0.999248
0.993202
0.995412
0.999768
0.998817
0.99539
0.997647
0.999317
0.998722
0.999626
1.00162
1.00091
1.00653
1
1.00023
1.00116
0.998102
1
1.00025
1.00393
1.00712
1.0028
1.00152
1.00862
1.00797
1.00483
0.99348
1.00903
0.998226
0.991541
0.999277
1.00036
0.996749
0.998105
1.0009
1.00088
1.00256
1.00791
1.00195
0.994422
0.999212
1.00292
1.00169
1.00721
1.00664
0.996021
1.00359
1.01558
1.00137
0.993671
1.02495

VECTORS velocity double
3.8486e-07 6.00025e-06 0
-0.000156663 9.33742e-05 0
-0.000288808 4.17009e-06 0
-0.00028658 -1.35004e-05 0
-0.000283856 2.46897e-05 0
-0.000466511 9.19787e-05 0
-0.000557703 -1.70726e-05 0
-0.000498355 -1.43216e-05 0
-0.000506002 5.43221e-05 0
-0.000607135 2.57991e-05 0
-0.000563289 -2.76691e-05 0
-0.000509227 1.15204e-05 0
-0.000500046 1.31835e-05 0
-0.000513692 -8.00125e-07 0
-0.000493615 9.6375e-06 0
-0.000483731 -6.99419e-06 0
-0.000435984 -8.27954e-06 0
-0.00045702 2.70166e-05 0
-0.000494433 3.29758e-05 0
-0.000412019 -7.43505e-05 0
-0.000260614 -6.58269e-06 0
-0.000269327 2.17017e-05 0
-0.000221869 -3.05846e-05 0
-0.000100362 -6.26638e-05 0
2.52724e-06 7.85974e-07 0
-9.49099e-05 0.000150384 0
-0.000422538 0.000379542 0
-0.00062971 8.94087e-05 0
-0.000775248 5.73997e-05 0
-0.00112006 0.00027671 0
-0.00135476 0.000221117 0
-0.00126099 -2.40786e-05 0
-0.00138206 8.75672e-05 0
-0.00162028 0.000179191 0
-0.00156062 -1.89832e-05 0
-0.00135084 -8.21148e-05 0
-0.00144352 7.84671e-05 0
-0.00145332 -3.32568e-05 0
-0.00119948 -9.08603e-05 0
-0.00113718 7.75585e-05 0
-0.00136985 4.81439e-05 0
-0.00135865 -7.39803e-05 0
-0.00117345 1.80596e-05 0
-0.00115509 7.28087e-05 0
-0.00121777 -0.000183129 0
-0.000945926 -0.000211162 0
-0.000575367 -9.47192e-05 0
-0.00040722 -0.000111739 0
-0.00030045 -0.000248547 0
-7.69731e-05 -0.000106553 0
-0.000123061 0.00046883 0
-0.0003031 0.000540149 0
-0.000671863 0.000495564 0
-0.00134824 0.000447568 0
-0.00156005 0.00047183 0
-0.00148251 0.000225914 0
-0.00174655 0.000210264 0
-0.00214151 0.000296163 0
-0.00203813 0.000128657 0
-0.00196243 -3.09477e-05 0
-0.00208205 -7.52088e-05 0
-0.00191469 -3.99283e-05 0
-0.00165621 -0.000123863 0
-0.00173124 -0.000121434 0
-0.00169779 6.12697e-05 0
-0.00150422 0.000109726 0
-0.00159563 1.6133e-05 0
-0.00177704 -5.46918e-05 0
-0.00152177 -8.08347e-05 0
-0.00132063 -0.000169563 0
-0.00132326 -0.000468189 0
-0.00101755 -0.000547291 0
-0.000465663 -0.000342247 0
-0.000223373 -0.000342484 0
-7.71455e-05 -0.00033519 0
6.98827e-05 0.000556657 0
-0.000389803 0.000993482 0
-0.00128741 0.00119631 0
-0.00168925 0.000790058 0
-0.00149146 0.000366422 0
-0.0016348 0.000431744 0
-0.00210614 0.000603619 0
-0.00234576 0.00047352 0
-0.00233274 7.49954e-05 0
-0.00245164 2.27949e-05 0
-0.00246478 -0.000112199 0
-0.00211474 -0.000316326 0
-0.00181723 -0.00020823 0
-0.00184092 -0.000102729 0
-0.00173115 -8.00195e-05 0
-0.00152278 6.16037e-05 0
-0.00161037 0.000205682 0
-0.00190135 -7.86746e-06 0
-0.00182229 -0.000287389 0
-0.00143279 -0.000370915 0
-0.00120329 -0.000544691 0
-0.00113618 -0.000876046 0
-0.000707363 -0.000875998 0
-0.000167973 -0.000622416 0
5.38358e-05 -0.000382343 0
-0.000143925 0.000650823 0
-0.00110248 0.00223524 0
-0.00163335 0.00147158 0
-0.00118812 0.000563674 0
-0.00117207 0.000427009 0
-0.00183104 0.00100783 0
-0.00215817 0.000814699 0
-0.00231991 0.00065261 0
-0.00276883 0.000367292 0
-0.0028085 -0.000102139 0
-0.00236713 -0.00039126 0
-0.00222489 -0.00048676 0
-0.0020857 -0.000437755 0
-0.00165384 -0.00029926 0
-0.0014557 -0.000127247 0
-0.00159908 5.84913e-05 0
-0.00140804 0.000207424 0
-0.00114196 0.00013163 0
-0.00139792 -0.000208168 0
-0.00160055 -0.000787365 0
-0.00125477 -0.000734977 0
-0.000965936 -0.000942778 0
-0.000798103 -0.00131619 0
-0.000442882 -0.00121145 0
-4.42488e-05 -0.000345281 0
-0.0003946 0.0014333 0
-0.000930867 0.00277489 0
-0.000938784 0.00132413 0
-0.000743504 0.000148986 0
-0.000658736 0.000756738 0
-0.000985986 0.00153432 0
-0.00175645 0.0014507 0
-0.00280982 0.0010988 0
-0.00323823 0.000510428 0
-0.00283129 -0.000389219 0
-0.00226872 -0.000735589 0
-0.0021004 -0.000653753 0
-0.0019414 -0.00071076 0
-0.00160399 -0.000565081 0
-0.00119336 -0.000339943 0
-0.000867807 -0.0001088 0
-0.000692248 8.46221e-05 0
-0.000588402 8.97436e-05 0
-0.000537334 -4.95511e-05 0
-0.000831686 -0.000499885 0
-0.00107944 -0.000911688 0
-0.000781348 -0.00139539 0
-0.000461237 -0.00136092 0
-0.000539912 -0.00136943 0
-0.000255721 -0.000774801 0
-0.000101733 0.00215458 0
-0.000163811 0.00237618 0
-4.16698e-05 0.0013863 0
0 0 0
-0.000193149 0.0010962 0
-0.000815431 0.00198046 0
-0.00190998 0.00279782 0
-0.00275738 0.00182052 0
-0.00253249 0.000177524 0
-0.00238058 -0.00070945 0
-0.00244644 -0.0010309 0
-0.00200619 -0.0010038 0
-0.00151064 -0.000890733 0
-0.00149405 -0.000822544 0
-0.00126213 -0.000807038 0
-0.000718359 -0.000454597 0
-0.000202911 -0.000225916 0
0 0 0
0 0 0
0 0 0
-0.000488948 -0.000653872 0
-0.00082 -0.0018164 0
-0.000337157 -0.0015672 0
-8.06828e-05 -0.00119472 0
-2.32983e-05 -0.00117504 0
0.000397088 0.00170176 0
0.000224043 0.00286313 0
-0.000137634 0.00130439 0
0 0 0
-0.000122825 0.00141858 0
-0.00101497 0.00314007 0
-0.00167529 0.00327632 0
-0.00156977 0.00201169 0
-0.00134029 -3.99002e-05 0
-0.00130427 -0.000798273 0
-0.00147707 -0.00102759 0
-0.00164711 -0.00116485 0
-0.00175862 -0.000995615 0
-0.00165242 -0.00114958 0
-0.00119311 -0.00112547 0
-0.000631017 -0.000955226 0
-0.000139866 -0.000691295 0
0 0 0
0 0 0
0 0 0
-4.69429e-05 -0.000351255 0
-0.000459612 -0.00124818 0
-0.000528777 -0.00221189 0
8.76651e-05 -0.00173024 0
0.000261981 -0.000810364 0
-0.00023088 0.00140886 0
-0.000342372 0.00344337 0
-6.76833e-05 0.000960667 0
0 0 0
-0.000108251 0.00173405 0
-0.00063238 0.00433269 0
-0.000731465 0.00283769 0
-0.000244735 0.00137576 0
0 0 0
-0.000474056 -0.000306144 0
-0.00122542 -0.000552725 0
-0.00184995 -0.000853567 0
-0.00196614 -0.0011006 0
-0.00137197 -0.00151804 0
-0.00107808 -0.00134487 0
-0.00125894 -0.00153168 0
-0.00061741 -0.00124369 0
0 0 0
0 0 0
0 0 0
3.06259e-05 -0.0002182 0
9.48916e-05 -0.000931698 0
-0.000123865 -0.00223538 0
-0.000466488 -0.00213734 0
-0.000218573 -0.000676124 0
-0.00027434 0.00214685 0
-7.31445e-05 0.00260864 0
0.000232346 0.0010017 0
0 0 0
-0.000754859 0.00249271 0
-0.00162172 0.00408114 0
-0.00147172 0.00298298 0
-0.00125129 0.00100896 0
-0.00129734 0.000140876 0
-0.00126588 0.000107315 0
-0.00159247 0.000317238 0
-0.00206263 -0.000665722 0
-0.00192598 -0.00139748 0
-0.00197043 -0.00160536 0
-0.0020004 -0.00157353 0
-0.00168266 -0.00178646 0
-0.0017796 -0.00124608 0
-0.00175402 -0.000687609 0
-0.000994823 -0.00019853 0
-0.000815014 1.11722e-05 0
-0.000638904 -0.000218506 0
5.16781e-05 -0.00180266 0
0.000306426 -0.00144713 0
-0.000371399 -0.00147229 0
-0.000352506 -0.0015273 0
0.000279233 0.00212255 0
0.000549548 0.00200999 0
0.000182814 0.00153297 0
-0.00132247 0.0011584 0
-0.00190805 0.0032697 0
-0.00192334 0.00409838 0
-0.00253331 0.00338451 0
-0.00229455 0.000568226 0
-0.00135437 -0.000317024 0
-0.00174783 0.000531191 0
-0.00236712 0.000447532 0
-0.0015864 -0.000964931 0
-0.00132136 -0.00127889 0
-0.0023021 -0.00116884 0
-0.00282742 -0.00161124 0
-0.00256608 -0.00175125 0
-0.00283409 -0.000846591 0
-0.00340573 -0.00119152 0
-0.00273574 -0.000788315 0
-0.00159039 -0.000623051 0
-0.00103399 -0.000507455 0
-0.00111802 -0.00216325 0
-0.000535786 -0.00168447 0
0.00029637 -0.00131058 0
0.000304248 -0.00154195 0
0.000401828 0.0010795 0
-1.08273e-05 0.0032939 0
-0.0010224 0.00219679 0
-0.00137047 0.00180642 0
-0.00239245 0.00391028 0
-0.00351604 0.00488212 0
-0.00177523 0.00174568 0
0 0 0
-0.00102529 0.000232646 0
-0.00103422 0.000473989 0
0 0 0
-0.00101517 -0.00052673 0
-0.00240702 -0.000551134 0
-0.00241619 -0.000921945 0
-0.00240777 -0.0011835 0
-0.00348866 -0.00122296 0
-0.00376553 -0.00115759 0
-0.0031725 -0.00082143 0
-0.00351853 -0.00104625 0
-0.00341658 -0.00199101 0
-0.00182658 -0.00130295 0
-0.00136601 -0.00160163 0
-0.00132313 -0.00291815 0
-0.000315884 -0.00273199 0
0.000299897 -0.000692568 0
-0.000643689 0.00138227 0
-0.000833331 0.00365094 0
-0.000641233 0.00296076 0
-0.00239641 0.00295118 0
-0.00360007 0.00444766 0
-0.00203629 0.00376415 0
-0.000861567 0.000186881 0
-0.0020645 0.000410476 0
-0.00143856 -7.96313e-05 0
0 0 0
-0.000553277 0.000531716 0
-0.00168288 0.000705229 0
-0.00230037 1.30156e-05 0
-0.00231647 -0.000877715 0
-0.00281649 -0.000515475 0
-0.00388831 -0.000496435 0
-0.00416297 -0.00134424 0
-0.00365104 -0.000924833 0
-0.00357898 -0.00116058 0
-0.00389602 -0.00223473 0
-0.0030887 -0.00252271 0
-0.00145377 -0.00246088 0
-0.00101166 -0.00247904 0
-0.0018287 -0.0029996 0
-0.0009517 -0.00147161 0
-0.00024272 0.00273075 0
-0.000304378 0.00226153 0
-0.000801592 0.00403353 0
-0.00274489 0.0056078 0
-0.00328442 0.00389786 0
-0.00317821 0.00235892 0
-0.00493927 0.00197655 0
-0.0050322 -1.13456e-05 0
-0.00337125 -0.0016992 0
-0.003162 -0.00044528 0
-0.00329208 0.00137476 0
-0.00281894 0.00102471 0
-0.00205048 -9.91016e-05 0
-0.00276371 -0.000134766 0
-0.00357565 -2.95177e-06 0
-0.00296694 -0.000405061 0
-0.00357036 -0.000336474 0
-0.00507049 -0.00126731 0
-0.00419739 -0.00197041 0
-0.00322132 -0.00161554 0
-0.00392395 -0.00322286 0
-0.00329712 -0.00498225 0
-0.00112109 -0.00252838 0
-0.000494247 -0.00247962 0
-0.000192028 -0.00343838 0
0.000518837 0.00231969 0
-0.000521629 0.0037129 0
-0.00240495 0.0054688 0
-0.00233988 0.0056758 0
-0.00217002 0.00439114 0
-0.00369158 0.00392512 0
-0.00438938 0.00286363 0
-0.00486399 -0.000395301 0
-0.00496223 -0.00225337 0
-0.0043269 -0.000908947 0
-0.00385607 0.00101544 0
-0.00304873 3.07547e-05 0
-0.00249054 -0.00047117 0
-0.00252353 0.000386832 0
-0.00267789 0.000181226 0
-0.00285775 -0.0002512 0
-0.00377102 0.000774677 0
-0.00466945 -0.00106317 0
-0.0046998 -0.00211634 0
-0.00362173 -0.00290196 0
-0.00281669 -0.00287278 0
-0.00370058 -0.00471585 0
-0.00286066 -0.00487654 0
-0.00019894 -0.00388651 0
0.000759385 -0.00231801 0
-3.74786e-05 0.0015693 0
-0.0013589 0.00675682 0
-0.0021186 0.00579761 0
-0.00154194 0.00413449 0
-0.00214621 0.00591483 0
-0.00336382 0.00565652 0
-0.00179348 0.000863302 0
0 0 0
-0.0017972 -0.00126745 0
-0.00295048 -0.00110668 0
-0.00142811 -0.000289957 0
-0.00103513 -0.000367808 0
-0.00175254 7.3521e-05 0
-0.00141411 1.09e-05 0
-0.00142055 0.000470063 0
-0.0031874 0.00117252 0
-0.00329155 0.000568411 0
-0.00182862 -0.000692361 0
-0.00401386 -0.00055636 0
-0.00599987 -0.00489081 0
-0.00388766 -0.00353988 0
-0.0027385 -0.00368031 0
-0.00339509 -0.00671066 0
-0.00282741 -0.00717526 0
-0.000508 -0.00232826 0
-0.00157328 0.00392647 0
-0.00170852 0.00547842 0
-8.80001e-05 0.00550687 0
-0.00190962 0.00626781 0
-0.00262226 0.00545637 0
-0.000215526 0.00349735 0
0.000635406 0.000511316 0
0 0 0
0.000267173 -0.000266299 0
8.75978e-06 -0.000950148 0
-0.000229205 -0.00115924 0
0 0 0
-0.000369096 0.000451888 0
-0.00122042 0.000355389 0
-0.00184032 0.00105669 0
-0.0017094 0.00163574 0
-0.0013093 -0.000246861 0
-0.00148817 0.000258849 0
-0.0020534 0.00033644 0
-0.00333521 -0.00283342 0
-0.00500401 -0.00446551 0
-0.00361139 -0.00634536 0
-0.0019998 -0.00452721 0
-0.00379226 -0.00623967 0
-0.00216029 -0.00580317 0
0.000726242 0.00527438 0
0.000539925 0.00396334 0
-0.00192245 0.00696232 0
-0.00416806 0.00847948 0
-0.00306174 0.0037526 0
-0.00109755 0.00107359 0
-0.00023801 0.00120833 0
0 0 0
-0.000211446 -0.000379602 0
-0.000547824 -0.000800566 0
-0.0012423 -0.000528795 0
-0.0011749 -0.000134998 0
-0.000304974 0.00020661 0
-0.000840776 0.00161101 0
-0.00118879 0.00147476 0
-8.75052e-05 0.00038421 0
-0.000336734 2.93794e-05 0
-0.000822906 0.000508862 0
0 0 0
-0.000167556 0.000141079 0
-0.00374702 -0.00293446 0
-0.00648385 -0.00873289 0
-0.00367523 -0.00577308 0
-0.000238046 -0.00714903 0
0.00113243 -0.00816605 0
0.00085685 0.00282838 0
-0.002345 0.00966388 0
-0.00613124 0.00932612 0
-0.00409004 0.00542828 0
-0.0024147 0.00336334 0
-0.0027961 0.00105421 0
-0.0013232 -0.00111125 0
0 0 0
-0.000536425 0.000694824 0
-0.00119047 -0.00067171 0
-0.00154998 -0.000184366 0
-0.00232533 -0.000441313 0
-0.00260056 5.17162e-05 0
-0.00106767 0.000594529 0
0.000307695 0.000909156 0
-6.60575e-05 0.000708776 0
-0.000151231 0.000260578 0
6.34826e-06 -4.25211e-05 0
0 0 0
0.000126958 0.000558113 0
-0.000297123 -0.000188161 0
-0.0031847 -0.00397885 0
-0.00620878 -0.00936386 0
-0.00348803 -0.01296 0
0.000786509 -0.00504037 0
-0.00198218 0.00441362 0
-0.00477488 0.0135723 0
-0.00401159 0.00880581 0
-0.00539775 0.00532439 0
-0.00976819 0.00421906 0
-0.00957731 -0.000297234 0
-0.0038079 -0.00528394 0
0 0 0
-0.0018729 0.00219815 0
-0.00371685 0.000474757 0
-0.00260271 -0.000926098 0
-0.00150874 0.000317318 0
-0.00193404 0.000222869 0
-0.00168938 -0.00102063 0
-0.000803528 -0.000620057 0
-0.000145187 0.00177321 0
0 0 0
0 0 0
0 0 0
5.12151e-05 6.55702e-05 0
0.000532462 0.000118664 0
0.000297698 -0.000271976 0
-0.00589892 -0.0059474 0
-0.010321 -0.0165851 0
-0.00331439 -0.00968657 0
-0.00251754 0.0110635 0
-0.00240296 0.00871658 0
-0.0016781 0.0100446 0
-0.00837417 0.0134911 0
-0.0090255 0.00272982 0
-0.00592779 -0.00296775 0
-0.00897514 -0.00669343 0
-0.00925852 -0.00239075 0
-0.00329717 0.000149845 0
-0.00187187 0.00244439 0
-0.00463229 -0.00204996 0
-0.00388105 -0.00077202 0
-0.0013112 -0.00166338 0
-0.000508442 0.000466509 0
-0.00207014 -0.000913477 0
-0.000936396 4.18652e-05 0
0 0 0
0 0 0
0 0 0
0 0 0
0 0 0
0 0 0
0 0 0
-0.00466538 -0.0107686 0
-0.00380663 -0.0208363 0
0.00357666 0.00954754 0
-0.00117331 0.0132176 0
-0.0109455 0.0148981 0
-0.010564 0.0137863 0
-0.00547375 0.000687499 0
-0.00418406 -0.00206545 0
-0.0087747 -0.00254099 0
-0.0109506 -0.00503509 0
-0.00795173 -0.00351661 0
-0.00459558 0.00187608 0
-0.00311555 -0.000930262 0
-0.00214001 -0.00195585 0
-0.000682049 -0.00411031 0
0.00168602 -8.33517e-05 0
0.000991935 0.000850465 0
0.000112307 -0.00123169 0
0 0 0
0 0 0
0 0 0
0 0 0
-0.00437351 0.0034941 0
-0.0109698 0.000108879 0
-0.00826484 -0.00163774 0
0.00312969 -0.0164311 0
0.0076097 -0.0172286 0
-0.00263418 0.00769704 0
-0.0134071 0.0292995 0
-0.0104109 0.0117856 0
1.84833e-05 0.00511356 0
0 0 0
-0.00186007 0.000169322 0
-0.00200603 -9.29983e-06 0
-0.00316733 -0.00402461 0
-0.00642893 -0.00512145 0
-0.00257542 -0.00462144 0
0 0 0
0.000424205 -0.00499783 0
-0.00233288 -0.00267124 0
-0.00190559 -0.00346421 0
0.00178202 0.001417 0
-0.000194219 0.00200327 0
-0.00498603 -0.000395291 0
-0.00183261 -0.00204218 0
-0.000335881 0.00207184 0
-0.00724116 0.00534668 0
-0.00812196 0.00627881 0
-0.00462831 0.00163769 0
-0.00548276 -0.00454153 0
-0.00786833 -0.0312747 0
-0.00157941 -0.0101259 0
-0.00626048 0.0212059 0
-0.00723326 0.0231731 0
0.00594384 0.00242458 0
0.0158229 -0.000171344 0
0.0154411 0.00426099 0
0.0116759 -0.000387795 0
0.0153357 -0.00074601 0
0.0162504 -0.00111016 0
0.00969648 -0.00122123 0
0.00592809 -0.00666323 0
0.00987138 -0.00375238 0
0.00919107 0.00137884 0
0 0 0
0.0038772 -0.00677509 0
0.00321844 -0.00129881 0
0.00279692 0.00809992 0
0 0 0
0.00399488 -0.00530529 0
0.00461525 0.00145381 0
0.00310057 0.00973584 0
0.00633768 -0.000191038 0
0.0113697 0.00167334 0
0.00765972 6.47382e-05 0
-0.00712103 -0.0221994 0
-0.00537107 -0.0220793 0
0.0234713 0.0150234 0
0.0514767 0.00343447 0
0.0541077 -0.00212334 0
0.0487283 -0.0017951 0
0.052003 0.00349765 0
0.0558368 -0.00145314 0
0.0522194 -0.0013962 0
0.0511358 7.80524e-05 0
0.0527254 0.000916642 0
0.0522122 -0.00176594 0
0.0430066 -0.0037475 0
0.0440274 0.00322724 0
0.0494424 0.000995305 0
0.0434232 -0.00359733 0
0.0394734 0.000798401 0
0.0427592 0.00296782 0
0.0509005 0.00184659 0
0.0418762 -0.00420547 0
0.0418701 0.00275388 0
0.0472163 0.00359362 0
0.0530345 -0.00126792 0
0.0469571 -0.000948091 0
0.0532233 0.0039818 0
0.0514332 -0.00385635 0
0.0281409 -0.0173982 0


