# vtk DataFile Version 4.0
SiwiRVisFile
ASCII
DATASET STRUCTURED_POINTS
DIMENSIONS 50 50 1
ORIGIN 0 0 0
SPACING 1 1 1
POINT_DATA 2500


SCALARS flags double 1
LOOKUP_TABLE default
1
1
1
1
1
1
1
1
1
1
1
1
1
1
1
1
1
1
1
1
1
1
1
1
1
1
1
1
1
1
1
1
1
1
1
1
1
1
1
1
1
1
1
1
1
1
1
1
1
1
1
1
1
1
1
1
1
1
1
1
1
1
1
1
1
1
1
1
1
1
1
1
1
1
1
1
1
1
1
1
1
1
1
1
1
1
1
1
1
1
1
1
1
1
1
1
1
1
1
1
1
1
1
1
1
1
1
1
1
1
1
1
1
1
1
1
1
1
1
1
1
1
1
1
1
1
1
1
1
1
1
1
1
1
1
1
1
1
1
1
1
1
1
1
1
1
1
1
1
1
1
1
1
1
1
1
1
1
1
1
1
1
1
1
1
1
1
1
1
1
1
1
1
1
1
1
1
1
1
1
1
1
1
1
1
1
1
1
1
1
1
1
1
1
1
1
1
1
1
1
1
1
1
1
1
1
1
1
1
1
1
1
1
1
1
1
1
1
1
1
1
1
1
1
1
1
1
1
1
1
1
1
1
1
1
1
1
1
1
1
1
1
1
1
1
1
1
1
1
1
1
1
1
1
1
1
1
1
1
1
1
1
1
1
1
1
1
1
1
1
1
1
1
1
1
1
1
1
1
1
1
1
1
1
1
1
1
1
1
1
1
1
1
1
1
1
1
1
1
1
1
1
1
1
1
1
1
1
1
1
1
1
1
1
1
1
1
1
1
1
1
1
1
1
1
1
1
1
1
1
1
1
1
1
1
1
1
1
1
1
1
1
1
1
1
1
1
1
1
1
1
1
1
1
1
1
1
1
1
1
1
1
1
1
1
1
1
1
1
1
1
1
1
1
1
1
1
1
1
1
1
1
1
1
1
1
1
1
1
1
1
1
1
1
1
1
1
1
1
1
1
1
1
1
1
1
1
1
1
1
1
1
1
1
1
1
1
1
1
1
1
1
1
1
1
1
1
1
1
1
1
1
1
1
1
1
1
1
1
1
1
1
1
1
1
1
1
1
1
1
1
1
1
1
1
1
1
1
1
1
1
1
1
1
1
1
1
1
1
1
1
1
1
1
1
1
1
1
1
1
1
1
1
1
1
1
1
1
1
1
1
1
1
1
1
1
1
1
1
1
1
1
1
1
1
1
1
1
1
1
1
1
1
1
1
1
1
1
1
1
1
1
1
1
1
1
1
1
1
1
1
1
1
1
1
1
1
1
1
1
1
1
1
1
1
1
1
1
1
1
1
1
1
1
1
1
1
1
1
1
1
1
1
1
1
1
1
1
1
1
1
1
1
1
1
1
1
1
1
1
1
1
1
1
1
1
1
1
1
1
1
1
1
1
1
1
1
1
1
1
1
1
1
1
1
1
1
1
1
1
1
1
1
1
1
1
1
1
1
1
1
1
1
1
1
1
1
1
1
1
1
1
1
1
1
1
1
1
1
1
1
1
1
1
1
1
1
1
1
1
1
1
1
1
1
1
1
1
1
1
1
1
1
1
1
1
1
1
1
1
1
1
1
1
1
1
1
1
1
1
1
1
1
1
1
1
1
1
1
1
1
1
1
1
1
1
1
1
1
1
1
1
1
1
1
1
1
1
1
1
1
1
1
1
1
1
1
1
1
1
1
1
1
1
1
1
1
1
1
1
1
1
1
1
1
1
1
1
1
1
1
1
1
1
1
1
1
1
1
1
1
1
1
1
1
1
1
1
1
1
1
1
1
1
1
1
1
1
1
1
1
1
1
1
1
1
1
1
1
1
1
1
1
1
1
1
1
1
1
1
1
1
1
1
1
1
1
1
1
1
1
1
1
1
1
1
1
1
1
1
1
1
1
1
1
1
1
1
1
1
1
1
1
1
1
1
1
1
1
1
1
1
1
1
1
1
1
1
1
1
1
1
1
1
1
1
1
1
1
1
1
1
1
1
1
1
1
1
1
1
1
1
1
1
1
1
1
1
1
1
1
1
1
1
1
1
1
1
1
1
1
1
1
1
1
1
1
1
1
1
1
1
1
1
1
1
1
1
1
1
1
1
1
1
1
1
1
1
1
1
1
1
1
1
1
1
1
1
1
1
1
1
1
1
1
1
1
1
1
1
1
1
1
1
1
1
1
1
1
1
1
1
1
1
1
1
1
1
1
1
1
1
1
1
1
1
1
1
1
1
1
1
1
1
1
1
1
1
1
1
1
1
1
1
1
1
1
1
1
1
1
1
1
1
1
1
1
1
1
1
1
1
1
1
1
1
1
1
1
1
1
1
1
1
1
1
1
1
1
1
1
1
1
1
1
1
1
1
1
1
1
1
1
1
1
1
1
1
1
1
1
1
1
1
1
1
1
1
1
1
1
1
1
1
1
1
1
1
1
1
1
1
1
1
1
1
1
1
1
1
1
1
1
1
1
1
1
1
1
1
1
1
1
1
1
1
1
1
1
1
1
1
1
1
1
1
1
1
1
1
1
1
1
1
1
1
1
1
1
1
1
1
1
1
1
1
1
1
1
1
1
1
1
1
1
1
1
1
1
1
1
1
1
1
1
1
1
1
1
1
1
1
1
1
1
1
1
1
1
1
1
1
1
1
1
1
1
1
1
1
1
1
1
1
1
1
1
1
1
1
1
1
1
1
1
1
1
1
1
1
1
1
1
1
1
1
1
1
1
1
1
1
1
1
1
1
1
1
1
1
1
1
1
1
1
1
1
1
1
1
1
1
1
1
1
1
1
1
1
1
1
1
1
1
1
1
1
1
1
1
1
1
1
1
1
1
1
1
1
1
1
1
1
1
1
1
1
1
1
1
1
1
1
1
1
1
1
1
1
1
1
1
1
1
1
1
1
1
1
1
1
1
1
1
1
1
1
1
1
1
1
1
1
1
1
1
1
1
1
1
1
1
1
1
1
1
1
1
1
1
1
1
1
1
1
1
1
1
1
1
1
1
1
1
1
1
1
1
1
1
1
1
1
1
1
1
1
1
1
1
1
1
1
1
1
1
1
1
1
1
1
1
1
1
1
1
1
1
1
1
1
1
1
1
1
1
1
1
1
1
1
1
1
1
1
1
1
1
1
1
1
1
1
1
1
1
1
1
1
1
1
1
1
1
1
1
1
1
1
1
1
1
1
1
1
1
1
1
1
1
1
1
1
1
1
1
1
1
1
1
1
1
1
1
1
1
1
1
1
1
1
1
1
1
1
1
1
1
1
1
1
1
1
1
1
1
1
1
1
1
1
1
1
1
1
1
1
1
1
1
1
1
1
1
1
1
1
1
1
1
1
1
1
1
1
1
1
1
1
1
1
1
1
1
1
1
1
1
1
1
1
1
1
1
1
1
1
1
1
1
1
1
1
1
1
1
1
1
1
1
1
1
1
1
1
1
1
1
1
1
1
1
1
1
1
1
1
1
1
1
1
1
1
1
1
1
1
1
1
1
1
1
1
1
1
1
1
1
1
1
1
1
1
1
1
1
1
1
1
1
1
1
1
1
1
1
1
1
1
1
1
1
1
1
1
1
1
1
1
1
1
1
1
1
1
1
1
1
1
1
1
1
1
1
1
1
1
1
1
1
1
1
1
1
1
1
1
1
1
1
1
1
1
1
1
1
1
1
1
1
1
1
1
1
1
1
1
1
1
1
1
1
1
1
1
1
1
1
1
1
1
1
1
1
1
1
1
1
1
1
1
1
1
1
1
1
1
1
1
1
1
1
1
1
1
1
1
1
1
1
1
1
1
1
1
1
1
1
1
1
1
1
1
1
1
1
1
1
1
1
1
1
1
1
1
1
1
1
1
1
1
1
1
1
1
1
1
1
1
1
1
1
1
1
1
1
1
1
1
1
1
1
1
1
1
1
1
1
1
1
1
1
1
1
1
1
1
1
1
1
1
1
1
1
1
1
1
1
1
1
1
1
1
1
1
1
1
1
1
1
1
1
1
1
1
1
1
1
1
1
1
1
1
1
1
1
1
1
1
1
1
1
1
1
1
1
1
1
1
1
1
1
1
1
1
1
1
1
1
1
1
1
1
1
1
1
1
1
1
1
1
1
1
1
1
1
1
1
1
1
1
1
1
1
1
1
1
1
1
1
1
1
1
1
1
1
1
1
1
1
1
1
1
1
1
1
1
1
1
1
1
1
1
1
1
1
1
1
1
1
1
1
1
1
1
1
1
1
1
1
1
1
1
1
1
1
1
1
1
1
1
1
1
1
1
1
1
1
1
1
1
1
1
1
1
1
1
1
1
1
1
1
1
1
1
1
1
1
1
1
1
1
1
1
1
1
1
1
1
1
1
1
1
1
1
1
1
1
1
1
1
1
1
1
1
1
1
1
1
1
1
1
1
1
1
1
1
1
1
1
1
1
1
1
1
1
1
1
1
1
1
1
1
1
1
1
1
1
1
1
1
1
1
1
1
1
1
1
1
1
1
1
1
1
1
1
1
1
1
1
1
1
1
1
1
1
1
1
1
1
1
1
1
1
1
1
1
1
1
1
1
1
1
1
1
1
1
1
1
1
1
1
1
1
1
1
1
1
1
1
1
1
1
1
1
1
1
1
1
1
1
1
1
1
1
1
1
1
1
1
1
1
1
1
1
1
1
1
1
1
1
1
1
1
1
1
1
1
1
1
1
1
1
1
1
1
1
1
1
1
1
1
1
1
1
1
1
1
1
1
1
1
1
1
1
1
1
1
1
1
1
1
1
1
1
1
1
1
1
1
1
1
1
1
1
1
1
1
1
1
1
1
1
1
1
1
1
1
1
1
1
1
1
1
1
1
1
1
1
1
1
1
1
1
1
1
1
1
1
1
1
1
1
1
1
1
1
1
1
1
1
1
1
1
1
1
1
1
1
1
1
1
1
1
1
1
1
1
1
1
1
1
1
1
1
1
1
1
1
1
1
1
1
1
1
1
1
1
1
1
1
1
1
1
1
1
1
1
1
1
1
1
1
1
1
1
1
1
1
1
1
1
1
1
1
1
1
1
1
1
1
1
1
1
1
1
1
1
1
1
1
1
1
1
1
1
1
1
1
1
1
1
1
1
1
1
1
1
1
1
1
1
1
1
1
1
1
1
1
1
1
1
1
1
1
1
1
1
1
1
1
1
1
1
1
1
1
1
1
1
1
1
1
1
1
1
1
1
1
1
1
1
1
1
1
1
1
1
1
1
1
1
1
1
1
1
1
1
1
1
1
1
1
1
1
1
1
1
1
1
1
1
1
1
1
1
1
1
1
1
1
1
1
1
1
1
1
1
1
1
1
1
1
1
1
1
1
1
1
1
1
1
1
1
1
1
1
1
1
1
1
1
1
1
1
1
1
1
1
1
1
1
1
1
1
1
1
1
1
1
1
1
1
1
1
1
1
1
1
1
1
1
1
1
1
1
1
1
1
1
1
1
1
1
1
1
1
1
1
1
1
1
1
1
1
1
1
1
1
1
1
1
1
1
1
1
1
1
1
1
1
1
1
1
1
1
1
1
1
1
1
1
1
1
1
1
1
1
1
1
1
1
1
1
1
1
1
1
1
1
1
1
1
1
1
1
1
1
1
1
1
1
1
1
1
1
1
1
1
1
1
1
1
1
1
1
1
1
1
1
1
1
1
1
1
1
1
1
1
1
1
1
1
1
1
1
1
1
1
1

SCALARS density double 1
LOOKUP_TABLE default
0.99873
0.99863
0.998568
0.998562
0.998523
0.998548
0.998575
0.99862
0.998647
0.998755
0.998826
0.998887
0.999002
0.99914
0.999207
0.99929
0.999451
0.99955
0.999589
0.999691
0.999804
0.999815
0.999825
0.999911
0.999941
0.999902
0.999938
1.00001
1.00001
1.00002
1.00012
1.00019
1.00021
1.00029
1.00041
1.00046
1.0005
1.0006
1.00068
1.00071
1.00075
1.00084
1.00084
1.00086
1.00089
1.00091
1.00087
1.00088
1.00085
1.00077
0.998609
0.998481
0.998423
0.9985
0.998414
0.998446
0.99848
0.998508
0.998536
0.998629
0.998691
0.998752
0.99885
0.998972
0.999063
0.999156
0.999287
0.999407
0.999481
0.99958
0.99969
0.999748
0.999788
0.999863
0.999915
0.999922
0.999967
1.00003
1.00006
1.00011
1.00019
1.00026
1.00031
1.00039
1.00049
1.00055
1.0006
1.00068
1.00075
1.00079
1.00082
1.00088
1.00091
1.00092
1.00094
1.00097
1.00091
1.00096
1.00093
1.00084
0.998337
0.998332
0.998291
0.998295
0.998286
0.998326
0.998297
0.99836
0.9984
0.998417
0.998462
0.99857
0.998633
0.998674
0.998812
0.998937
0.999001
0.999109
0.99929
0.999397
0.999456
0.999607
0.999738
0.999772
0.999834
0.999977
1.00003
1.00005
1.00016
1.00028
1.0003
1.00038
1.00052
1.00058
1.0006
1.00069
1.00079
1.0008
1.00084
1.00092
1.00095
1.00095
1.00098
1.00104
1.001
1.00103
1.00104
1.00104
1.001
1.00101
0.998077
0.998168
0.998151
0.99814
0.9982
0.998229
0.998214
0.998245
0.998282
0.998297
0.99831
0.998371
0.998401
0.998459
0.998525
0.998618
0.998713
0.998815
0.998948
0.999084
0.999229
0.999373
0.99953
0.999671
0.999813
0.999938
1.00008
1.00019
1.00031
1.00041
1.00052
1.0006
1.00068
1.00075
1.0008
1.00086
1.0009
1.00095
1.00096
1.00101
1.00102
1.00104
1.00106
1.00109
1.00109
1.0011
1.00115
1.00114
1.00112
1.00118
0.99796
0.998026
0.99807
0.998162
0.998151
0.998186
0.998244
0.998256
0.998242
0.998274
0.998314
0.998254
0.99829
0.998351
0.998339
0.99834
0.998457
0.998546
0.99858
0.99874
0.998949
0.999092
0.999252
0.999529
0.999753
0.999903
1.00011
1.00035
1.00047
1.00057
1.00072
1.00083
1.00083
1.00089
1.00099
1.00098
1.00097
1.00103
1.00108
1.00103
1.00108
1.00112
1.00111
1.00111
1.00117
1.00119
1.00117
1.00123
1.00126
1.00128
0.997927
0.998019
0.998075
0.99815
0.99819
0.998202
0.998267
0.99831
0.998297
0.998328
0.998341
0.998352
0.998322
0.998311
0.998318
0.998304
0.998293
0.998324
0.998399
0.998473
0.998604
0.998814
0.999056
0.999306
0.999593
0.999911
1.00017
1.00039
1.00061
1.00077
1.00086
1.00092
1.00099
1.00101
1.00102
1.00103
1.00107
1.00107
1.00107
1.00111
1.00113
1.00116
1.00116
1.0012
1.00124
1.00124
1.00127
1.0013
1.00132
1.00136
0.997962
0.998102
0.998098
0.998094
0.998181
0.998231
0.998223
0.998252
0.998364
0.998347
0.998348
0.998427
0.998422
0.998373
0.998377
0.998406
0.998306
0.998282
0.998354
0.998369
0.998418
0.998615
0.998901
0.999117
0.999447
0.999842
1.00016
1.00037
1.00065
1.00084
1.0009
1.00095
1.00104
1.00107
1.00101
1.00109
1.00112
1.00111
1.00112
1.0012
1.00122
1.00119
1.00129
1.00131
1.00129
1.00132
1.00138
1.00137
1.00134
1.00142
0.998085
0.998114
0.998106
0.998106
0.998103
0.998149
0.998147
0.998176
0.998223
0.998272
0.998312
0.998338
0.998417
0.998442
0.998455
0.998432
0.998476
0.998453
0.998396
0.99844
0.998527
0.998619
0.998763
0.999092
0.999377
0.999679
0.999989
1.00035
1.00053
1.00069
1.00086
1.00097
1.00098
1.00103
1.00113
1.00113
1.00116
1.0012
1.00127
1.00127
1.00131
1.00135
1.00136
1.00138
1.00139
1.00141
1.0014
1.00142
1.00142
1.00143
0.998222
0.998137
0.998109
0.998188
0.998091
0.998067
0.998128
0.998121
0.998067
0.998128
0.998204
0.998218
0.998236
0.998386
0.998426
0.998456
0.998555
0.998627
0.998625
0.998674
0.998793
0.998836
0.99893
0.999127
0.999361
0.999517
0.999798
1.00008
1.00029
1.00046
1.0007
1.00085
1.00094
1.00106
1.00118
1.00122
1.00124
1.00136
1.00136
1.00136
1.0014
1.00144
1.00141
1.00139
1.00146
1.00144
1.00138
1.00145
1.00145
1.00141
0.998279
0.998279
0.9982
0.998234
0.998186
0.998183
0.998127
0.998122
0.998127
0.998055
0.998086
0.998091
0.998144
0.998158
0.998276
0.998426
0.998505
0.998659
0.998883
0.999011
0.999064
0.999212
0.999324
0.999288
0.999336
0.999487
0.999596
0.99969
0.999954
1.00026
1.00043
1.00067
1.00095
1.00112
1.00118
1.00132
1.0014
1.00138
1.00142
1.00143
1.00145
1.00138
1.00142
1.00143
1.00139
1.0014
1.00141
1.00142
1.00138
1.00142
0.998293
0.998357
0.998275
0.998244
0.998262
0.99829
0.998215
0.998171
0.998219
0.998167
0.998064
0.998088
0.998116
0.998067
0.998136
0.998302
0.998467
0.998651
0.998961
0.999228
0.999411
0.999575
0.999626
0.9996
0.999473
0.999457
0.999396
0.999476
0.999657
0.999936
1.00023
1.00055
1.00088
1.00106
1.00122
1.00135
1.00141
1.00138
1.00141
1.00145
1.00139
1.00137
1.00143
1.00141
1.00138
1.00139
1.00144
1.00141
1.00136
1.00143
0.998291
0.998226
0.998208
0.998269
0.998172
0.998181
0.998259
0.998212
0.998197
0.99822
0.998236
0.998146
0.99813
0.998201
0.998178
0.998248
0.998458
0.998741
0.998949
0.999283
0.999663
0.999776
0.999816
0.999825
0.999746
0.999436
0.99938
0.999419
0.999499
0.999652
1.00006
1.00042
1.00063
1.00094
1.00117
1.00126
1.00127
1.00139
1.00141
1.00135
1.0014
1.00144
1.00142
1.00139
1.00147
1.00147
1.0014
1.00145
1.00146
1.00141
0.998164
0.998078
0.998055
0.998115
0.99805
0.998025
0.998119
0.998153
0.998117
0.998161
0.99826
0.998237
0.998238
0.998295
0.998405
0.998417
0.998589
0.998829
0.999071
0.999319
0.999574
0.999814
0.999893
0.9999
0.999794
0.999695
0.999537
0.999478
0.999477
0.999658
0.999858
1.00013
1.00042
1.0007
1.00095
1.00106
1.00124
1.00132
1.00137
1.00137
1.00145
1.00148
1.00145
1.00147
1.00153
1.0015
1.00147
1.00151
1.00151
1.00145
0.99794
0.998043
0.99797
0.997929
0.998
0.99805
0.997969
0.997988
0.998114
0.998085
0.998098
0.998274
0.998357
0.998412
0.998559
0.998821
0.998899
0.999014
0.999271
0.999412
0.999455
0.999628
0.999821
0.999797
0.999806
0.999906
0.999828
0.999643
0.999673
0.999701
0.999689
0.999823
1.00016
1.00038
1.00057
1.00092
1.00113
1.00122
1.00132
1.00148
1.00148
1.00143
1.00154
1.00154
1.00147
1.0015
1.00157
1.00152
1.00147
1.00156
0.997845
0.997965
0.997958
0.997947
0.997992
0.998034
0.997974
0.997954
0.998011
0.998041
0.998064
0.998136
0.998379
0.998546
0.998751
0.999022
0.999274
0.999392
0.99944
0.9995
0.999496
0.999449
0.999508
0.999675
0.999859
0.999925
1.00002
1.00003
0.999887
0.999705
0.999629
0.999694
0.999778
1.00002
1.00037
1.0007
1.00095
1.00116
1.00139
1.00144
1.00148
1.00152
1.00155
1.00153
1.00152
1.00154
1.00156
1.00154
1.00154
1.00158
0.997884
0.997834
0.997912
0.998034
0.997963
0.997896
0.99805
0.99802
0.997933
0.998008
0.998153
0.998162
0.998295
0.998665
0.998944
0.999134
0.999483
0.999703
0.999658
0.999554
0.999548
0.99942
0.999309
0.999556
0.999775
0.999938
1.0001
1.00025
1.00004
0.9998
0.999725
0.999589
0.999564
0.999801
1.0002
1.00044
1.00075
1.00115
1.0013
1.00135
1.0015
1.00159
1.00153
1.00151
1.00166
1.00159
1.00153
1.00161
1.00166
1.00157
0.997851
0.997903
0.997934
0.997952
0.997963
0.997952
0.997999
0.998045
0.998095
0.998079
0.998202
0.998363
0.998521
0.998733
0.999071
0.999403
0.999534
0.999731
0.999807
0.999712
0.999516
0.999466
0.999485
0.999434
0.999633
0.999922
1.00014
1.0001
1.00013
1.00005
0.999768
0.999595
0.999606
0.99974
0.999856
1.00023
1.00061
1.00087
1.0011
1.00132
1.00147
1.00147
1.00155
1.0016
1.00161
1.0016
1.00163
1.00161
1.00162
1.00165
0.997864
0.998066
0.997986
0.997841
0.998001
0.998086
0.99798
0.997985
0.998206
0.998249
0.998237
0.99855
0.998837
0.998954
0.999203
0.999522
0.99964
0.999596
0.999735
0.999746
0.99959
0.999558
0.999615
0.999595
0.999597
0.999827
0.999912
1
1.00013
1.00014
0.999929
0.999805
0.999801
0.999654
0.999736
1.00005
1.00036
1.00059
1.00095
1.0013
1.00136
1.00143
1.00164
1.00163
1.00155
1.0016
1.00175
1.00162
1.00157
1.00171
0.998072
0.997992
0.997981
0.998005
0.998
0.99797
0.998031
0.998016
0.998079
0.998255
0.998497
0.998666
0.998974
0.999341
0.99945
0.999521
0.999639
0.999667
0.999506
0.999557
0.999744
0.999724
0.999692
0.999774
0.999786
0.999615
0.999712
0.99993
1.00002
1.00004
1.0002
1.00014
0.999824
0.999735
0.999781
0.999846
0.999997
1.00045
1.00083
1.00104
1.00134
1.00155
1.00161
1.00161
1.00171
1.00167
1.00166
1.00169
1.00172
1.00162
0.998117
0.997865
0.997936
0.998075
0.997929
0.997805
0.997983
0.998084
0.998025
0.998236
0.998642
0.998895
0.999097
0.999492
0.999729
0.999622
0.999574
0.999588
0.999488
0.999463
0.999657
0.999845
0.999856
0.99988
0.999826
0.999663
0.999635
0.999758
0.999867
1.00012
1.00029
1.00023
1.00005
0.999932
0.999793
0.99966
0.999895
1.00028
1.00055
1.00087
1.00129
1.00151
1.00153
1.00165
1.00183
1.00174
1.00167
1.00176
1.00185
1.00167
0.997919
0.998003
0.997957
0.997817
0.997929
0.998009
0.997917
0.998036
0.998329
0.998426
0.998641
0.999114
0.999409
0.999492
0.999659
0.999802
0.999561
0.999369
0.999528
0.999541
0.999529
0.999767
1.00001
0.999925
0.999763
0.999834
0.999695
0.999593
0.999864
1.00015
1.00021
1.00024
1.00038
1.00012
0.999766
0.999816
0.999912
0.99998
1.00031
1.00082
1.00108
1.00122
1.00157
1.0017
1.00163
1.00173
1.00189
1.00174
1.00173
1.00186
0.997862
0.998025
0.997938
0.997785
0.997955
0.998074
0.99803
0.998103
0.99846
0.99871
0.998862
0.999182
0.999569
0.999605
0.999551
0.999613
0.999581
0.999451
0.99941
0.999593
0.999658
0.999722
0.999847
0.999893
0.999909
0.999808
0.999791
0.999767
0.999855
0.999967
1.00012
1.00038
1.00036
1.00021
1.00008
0.999982
0.999825
0.99985
1.00023
1.00057
1.00083
1.00116
1.00151
1.00161
1.00164
1.00173
1.00188
1.00177
1.00174
1.00186
0.997964
0.997665
0.997768
0.998001
0.997837
0.997732
0.998127
0.998288
0.998293
0.998737
0.999269
0.999354
0.999401
0.999713
0.99961
0.999315
0.999426
0.999584
0.999492
0.999505
0.999803
0.999736
0.999608
0.999843
0.999939
0.999859
0.999862
1.00003
0.999878
0.999808
1.00016
1.00029
1.00028
1.0004
1.00043
1.00003
0.999805
1.00003
1.00006
1.00019
1.00077
1.00125
1.00133
1.00154
1.00193
1.00184
1.00171
1.00192
1.00203
1.00174
0.997756
0.997629
0.997763
0.997852
0.99782
0.997788
0.99807
0.998355
0.998586
0.998914
0.999415
0.999663
0.999617
0.99957
0.999596
0.999428
0.999274
0.999488
0.99965
0.999674
0.999625
0.999708
0.999722
0.999639
0.999798
0.999981
1.00011
0.999981
0.999949
1.00002
0.999995
1.00009
1.00033
1.00056
1.00038
1.00018
1.0001
0.999907
0.999832
1.0001
1.00057
1.0009
1.00124
1.00156
1.00181
1.00183
1.00188
1.00189
1.002
1.00193
0.997461
0.997911
0.997832
0.99748
0.997854
0.998176
0.998044
0.998267
0.999023
0.999278
0.999283
0.999698
0.999834
0.999461
0.999286
0.99948
0.999404
0.999286
0.999654
0.999787
0.999602
0.999595
0.99972
0.999651
0.999677
1.00005
1.00012
1.00005
1.0001
1.0001
0.999916
1.00003
1.00045
1.00044
1.00041
1.00057
1.00032
0.999873
0.999903
1.00023
1.00026
1.00055
1.00129
1.00154
1.00149
1.00181
1.00216
1.00186
1.00179
1.00216
0.997701
0.997673
0.997705
0.997728
0.997878
0.998047
0.998317
0.998568
0.998936
0.999356
0.999532
0.999452
0.999532
0.999533
0.999273
0.999234
0.999502
0.999597
0.999493
0.999636
0.999773
0.999615
0.999524
0.999748
0.99988
0.999845
1
1.00025
1.00019
0.999971
1.00006
1.00019
1.00012
1.00032
1.00066
1.00063
1.00033
1.00025
1.0002
1.00001
1.00021
1.00067
1.001
1.00129
1.00165
1.0018
1.00191
1.00201
1.00206
1.00194
0.997901
0.997399
0.99763
0.998137
0.997912
0.997838
0.998608
0.999045
0.998943
0.999332
0.999844
0.999568
0.999206
0.999487
0.999517
0.999273
0.99946
0.999788
0.999624
0.999488
0.999689
0.999691
0.99959
0.999738
0.999901
0.999838
0.999988
1.00019
1.00013
1.00011
1.00024
1.00011
0.999992
1.00035
1.00061
1.00045
1.00047
1.0006
1.00014
0.999834
1.00026
1.00061
1.00062
1.00109
1.0018
1.00178
1.00164
1.00208
1.00229
1.00187
0.997611
0.997808
0.997868
0.997704
0.998022
0.998358
0.998516
0.99893
0.999499
0.999543
0.999502
0.999604
0.999463
0.999128
0.999286
0.999573
0.999468
0.999457
0.999694
0.99959
0.999396
0.9996
0.999866
0.999761
0.999688
1.00002
1.00002
0.999905
1.00017
1.0004
1.00022
1.00008
1.00033
1.00037
1.00032
1.00067
1.00086
1.00047
1.00024
1.00029
1.00013
1.00014
1.00077
1.0012
1.00132
1.00172
1.0021
1.00189
1.00196
1.00224
0.997546
0.998108
0.997891
0.997507
0.998098
0.998703
0.998628
0.998893
0.999749
0.999816
0.999301
0.999371
0.999552
0.999185
0.99907
0.999567
0.99966
0.999448
0.999471
0.999704
0.999541
0.999577
0.999838
0.99987
0.999896
0.999865
0.999903
0.999933
1.00017
1.00027
1.00016
1.00036
1.00036
1.00017
1.00032
1.00082
1.00078
1.0005
1.0006
1.00051
0.999976
1.00003
1.00076
1.00103
1.00111
1.00167
1.0022
1.00194
1.00181
1.00226
0.99803
0.997419
0.997605
0.998218
0.998109
0.99821
0.999117
0.99951
0.999319
0.999566
0.999756
0.999255
0.999036
0.999474
0.999479
0.999284
0.999614
0.999718
0.999436
0.999395
0.999823
0.999732
0.99962
0.999967
1.00002
0.9998
0.999774
1.00014
1.00008
1
1.00045
1.00046
1.00015
1.00022
1.00057
1.00046
1.00052
1.00103
1.0008
1.0002
1.00032
1.00049
1.00023
1.00064
1.00159
1.00166
1.00159
1.00224
1.00245
1.00184
0.997864
0.997351
0.997767
0.998304
0.998295
0.998385
0.999244
0.999699
0.999448
0.999321
0.999588
0.999366
0.999021
0.999315
0.99966
0.999486
0.999352
0.999566
0.999518
0.999449
0.999519
0.999797
0.999834
0.999774
0.999877
0.999918
1.00001
0.999946
1
1.00031
1.00042
1.00036
1.00033
1.00052
1.00039
1.0003
1.00073
1.00103
1.00072
1.00051
1.00061
1.00038
1.00019
1.00065
1.00135
1.00152
1.00167
1.00207
1.00243
1.00212
0.997078
0.99814
0.998001
0.99746
0.998417
0.999363
0.99894
0.999133
0.999954
0.99959
0.998853
0.999307
0.999598
0.999191
0.999221
0.999818
0.999516
0.999124
0.999574
0.999723
0.999529
0.999657
1.00005
0.999841
0.999696
1.00008
1
0.999791
1.00012
1.00032
1.00017
1.0003
1.00075
1.00043
1.00011
1.00071
1.00086
1.00051
1.00083
1.00123
1.00045
1.00003
1.00078
1.00093
1.00055
1.00147
1.00238
1.00186
1.00177
1.00279
0.997591
0.997829
0.99784
0.997937
0.998576
0.999129
0.999333
0.999387
0.999585
0.999573
0.999215
0.999069
0.999423
0.999441
0.999322
0.999402
0.999564
0.999421
0.999366
0.999704
0.999797
0.999742
0.999729
0.9999
0.999974
0.999843
0.99991
1.00011
1.00014
1.00003
1.00013
1.00052
1.00049
1.00037
1.00057
1.00067
1.00057
1.0007
1.0011
1.00095
1.00058
1.00057
1.00056
1.00058
1.00093
1.00137
1.00183
1.0021
1.00217
1.00218
0.998112
0.996914
0.997571
0.99905
0.998575
0.998312
0.999771
1.00009
0.998941
0.999066
0.999836
0.999262
0.99876
0.999569
0.999682
0.999075
0.999166
0.999744
0.999542
0.999374
0.999831
0.999854
0.999652
0.999812
0.999993
0.99987
0.999982
1.00021
1.00004
1.00001
1.00045
1.00037
1.0002
1.00074
1.0009
1.00034
1.00045
1.00129
1.00095
1.00046
1.00115
1.00118
1.00006
1.00032
1.00163
1.00138
1.001
1.00235
1.00293
1.00185
0.997299
0.997705
0.998084
0.998122
0.998717
0.999284
0.999305
0.999481
0.999555
0.999214
0.999103
0.99946
0.99941
0.999171
0.999419
0.999451
0.999247
0.9993
0.999746
0.999735
0.99954
0.999789
0.999945
0.999762
0.999728
1.00009
1.00013
0.999929
1.00007
1.00035
1.00018
1.00012
1.00059
1.00075
1.00053
1.00057
1.00088
1.00072
1.00075
1.00124
1.00109
1.00065
1.00077
1.00087
1.00068
1.00132
1.00203
1.00184
1.00217
1.00278
0.996885
0.998688
0.998295
0.997405
0.998974
1.0002
0.999126
0.998784
1.00001
0.999604
0.998572
0.999214
0.999983
0.999258
0.998828
0.999515
0.999446
0.999139
0.999522
0.99992
0.999666
0.999632
0.999939
0.999834
0.999804
1.00004
1.00003
0.999949
1.00025
1.00025
0.999998
1.00036
1.00078
1.00051
1.00044
1.00114
1.00086
1.00023
1.00102
1.0017
1.00079
1.00042
1.00142
1.00103
1.0001
1.00122
1.00254
1.0018
1.00151
1.00303
0.998325
0.997268
0.997696
0.999132
0.998911
0.998821
0.999794
0.99977
0.998799
0.999113
0.9996
0.999148
0.998997
0.999608
0.999397
0.998858
0.999274
0.999644
0.999467
0.999472
0.999939
0.999885
0.999613
0.999888
1.00005
0.999872
0.999925
1.00026
1.00012
0.999991
1.0004
1.00049
1.00026
1.00058
1.00109
1.00069
1.00048
1.00113
1.00114
1.00073
1.00127
1.00166
1.00057
1.00051
1.00159
1.00133
1.00099
1.00253
1.00293
1.00167
0.998211
0.996764
0.997929
0.999628
0.99897
0.99847
0.999898
1.00016
0.998746
0.998755
0.999891
0.999387
0.998744
0.999354
0.999701
0.999073
0.999036
0.999707
0.99962
0.999467
0.999776
0.999944
0.999742
0.999742
0.999944
0.999943
1.00012
1.00017
1.00001
1.00019
1.00051
1.00032
1.00018
1.00085
1.00095
1.00039
1.00074
1.00139
1.00086
1.00052
1.00165
1.0017
1.00042
1.00067
1.00178
1.00132
1.00092
1.00226
1.00323
1.00216
0.996477
0.999012
0.998728
0.997403
0.999136
1.00054
0.998912
0.998694
1.00006
0.999499
0.998363
0.9993
0.999752
0.998807
0.998713
0.999635
0.999522
0.999023
0.999544
0.999836
0.999599
0.999652
0.999964
0.999807
0.999711
1.00013
1.00013
0.999958
1.00025
1.00039
1.00015
1.00034
1.00088
1.00051
1.00034
1.00124
1.00133
1.00044
1.00087
1.00197
1.00104
1.00051
1.00195
1.00171
0.999964
1.00138
1.00307
1.00155
1.00131
1.00389
0.997507
0.998723
0.99831
0.997943
0.999314
1.00013
0.99922
0.998856
0.999641
0.999637
0.998758
0.998902
0.999496
0.999039
0.998841
0.99937
0.999641
0.999376
0.9994
0.999801
0.999808
0.999732
0.999789
0.999862
0.99996
0.999953
1.00002
1.00017
1.0003
1.00017
1.00014
1.00057
1.00065
1.00035
1.0006
1.00119
1.00102
1.00061
1.00126
1.00158
1.00092
1.00108
1.00178
1.00138
1.00074
1.00138
1.00231
1.00225
1.00198
1.0026
0.999256
0.996064
0.997413
1.00088
0.999032
0.997669
1.00035
1.00051
0.998146
0.99864
1.0003
0.999088
0.998014
0.999287
0.9996
0.998783
0.999123
0.999938
0.999601
0.999277
0.999863
0.99989
0.999555
0.99986
1.00007
0.999841
0.999998
1.00039
1.00012
1.00008
1.00068
1.00049
1.00009
1.00083
1.00126
1.00044
1.00065
1.00202
1.00122
1.00007
1.00182
1.0026
1.00036
1.00051
1.00311
1.00171
0.999912
1.00325
1.00434
1.00117
0.997281
0.997614
0.998691
0.998979
0.999202
0.999426
0.99946
0.999569
0.999169
0.999024
0.999145
0.999123
0.998789
0.998708
0.999116
0.999258
0.999348
0.999534
0.999685
0.999698
0.999604
0.999668
0.999754
0.999854
0.999942
0.999978
1.00013
1.00021
1.00023
1.00038
1.00041
1.00038
1.00051
1.00077
1.00077
1.00077
1.00123
1.00129
1.00103
1.00119
1.00152
1.00154
1.00137
1.00162
1.0014
1.00168
1.00226
1.00191
1.0028
1.00372
0.995718
1.00075
0.999179
0.996095
0.999526
1.00184
0.998501
0.997755
1.00066
0.999772
0.99767
0.998727
0.999815
0.998544
0.998226
0.999665
0.999763
0.999158
0.999683
1.00008
0.999595
0.999451
0.999889
0.999908
0.999836
1.00013
1.00006
1.00001
1.00044
1.00042
1.00001
1.00044
1.00106
1.00041
1.00027
1.00163
1.00149
1.00021
1.00129
1.00265
1.00083
1.00006
1.0031
1.00267
0.999428
1.00169
1.00478
1.00167
1.00046
1.00507
0.999301
0.997047
0.997619
1.00002
0.999326
0.998742
0.999894
0.99996
0.998581
0.998893
0.999285
0.998686
0.998302
0.998874
0.999204
0.998966
0.99934
0.999825
0.999737
0.999533
0.999622
0.999707
0.999656
0.99985
1.00003
0.999952
1.00006
1.00029
1.00028
1.00032
1.00052
1.00051
1.00041
1.00076
1.0011
1.00081
1.00096
1.00158
1.00144
1.00094
1.00149
1.0022
1.00114
1.00133
1.00274
1.00204
1.00098
1.00378
1.00428
1.00117
0.999622
0.994702
0.997624
1.00222
0.99895
0.996941
1.00069
1.00093
0.997817
0.998127
0.999982
0.998608
0.997534
0.999002
0.999574
0.998772
0.999137
1.00016
0.999897
0.999383
0.999702
0.999737
0.99954
0.999871
1.00008
0.99991
1.00013
1.00043
1.00015
1.00022
1.00081
1.00046
1.00006
1.00103
1.00144
1.0004
1.00076
1.00237
1.00143
1.00001
1.00213
1.00306
1.00025
1.00059
1.00443
1.0026
0.999574
1.00393
1.00613
1.00187
0.994556
1.00077
0.999765
0.995999
0.99962
1.00179
0.998656
0.997914
1.00004
0.99944
0.99746
0.998219
0.999255
0.998498
0.998457
0.999532
0.999848
0.999447
0.999752
0.999979
0.999516
0.999421
0.999784
0.999892
0.999914
1.00011
1.00016
1.00012
1.00038
1.00046
1.00022
1.0005
1.0009
1.00052
1.00058
1.00149
1.00149
1.00056
1.00148
1.00255
1.00095
1.00053
1.00307
1.00291
0.999959
1.00229
1.00595
1.00157
1.00089
1.00785
0.997001
1.00165
0.998374
0.995606
0.99993
1.0017
0.99849
0.998064
1.00008
0.999054
0.99734
0.998185
0.998944
0.998305
0.998595
0.99977
0.999849
0.999479
0.999861
0.999913
0.999418
0.999428
0.999787
0.999739
0.999822
1.00026
1.00026
1.00011
1.00048
1.00059
1.00019
1.00042
1.00104
1.00065
1.00052
1.00158
1.00168
1.00058
1.00132
1.00262
1.00117
1.0003
1.003
1.00319
1.00015
1.00197
1.00614
1.00317
1.00115
1.00492
1.00171
0.990614
0.996205
1.00424
0.999408
0.99627
1.00059
1.00126
0.997194
0.997348
0.999522
0.9983
0.997071
0.998683
0.999814
0.999101
0.999376
1.00031
0.999956
0.999343
0.999565
0.999716
0.999501
0.999784
1.00012
1.00007
1.00029
1.00045
1.00011
1.00027
1.00081
1.00044
1.00008
1.00114
1.00155
1.00037
1.00094
1.0026
1.00143
0.999926
1.00243
1.00346
0.999734
1.00078
1.00591
1.00297
0.998217
1.00659
1.01037
0.998284
0.995492
0.995493
0.998482
1.00049
0.998545
0.999087
1.00036
0.999281
0.997803
0.998336
0.99837
0.997586
0.997788
0.998874
0.999236
0.999428
1.00005
1.00026
0.999736
0.999522
0.999577
0.999404
0.999348
0.999862
1.00014
1.00007
1.00025
1.00055
1.00029
1.00018
1.00058
1.00067
1.00034
1.0008
1.00144
1.00112
1.00089
1.00186
1.00187
1.0009
1.00123
1.00272
1.00152
1.00102
1.00324
1.00434
1.00154
1.00393
1.00764
1.00818
0.99455
1.00918
0.999183
0.992781
1.00086
1.00361
0.99835
0.997291
1.00069
0.9987
0.996072
0.997507
0.999022
0.997936
0.99837
1.0003
1.00042
0.999698
0.999986
1.00003
0.999182
0.999094
0.999589
0.999649
0.99992
1.00052
1.0004
1.00018
1.00062
1.00051
0.999774
1.00043
1.00128
1.00043
1.00031
1.00226
1.00194
0.999849
1.00157
1.0037
1.00034
0.999213
1.00461
1.0039
0.997326
1.00335
1.011
1.00022
0.996226
1.02303

VECTORS velocity double
7.96357e-05 9.68773e-05 0
5.19965e-05 0.000197708 0
1.41234e-05 0.000142878 0
6.7815e-06 0.000178718 0
-6.43284e-06 0.000146154 0
-2.52257e-05 0.000178229 0
-4.51789e-05 0.000156145 0
-5.22045e-05 0.00016833 0
-6.39526e-05 0.000155603 0
-7.61572e-05 0.000160035 0
-8.21055e-05 0.000144995 0
-8.38495e-05 0.000147365 0
-8.83674e-05 0.000135131 0
-9.09291e-05 0.000125857 0
-8.72797e-05 0.000110844 0
-8.28182e-05 0.000106317 0
-8.15322e-05 8.85595e-05 0
-7.10163e-05 7.74931e-05 0
-5.8356e-05 6.17326e-05 0
-5.04046e-05 5.19633e-05 0
-4.31526e-05 3.66097e-05 0
-3.09186e-05 2.77546e-05 0
-2.56816e-05 1.6664e-05 0
-2.36284e-05 1.23029e-05 0
-1.80487e-05 3.53564e-06 0
-1.7004e-05 5.35952e-07 0
-2.09673e-05 -7.87831e-06 0
-2.22968e-05 -1.1019e-05 0
-2.55091e-05 -2.03824e-05 0
-3.47367e-05 -2.69592e-05 0
-3.98962e-05 -3.88005e-05 0
-4.63955e-05 -4.46269e-05 0
-5.54214e-05 -5.62053e-05 0
-6.25095e-05 -6.2904e-05 0
-6.24161e-05 -7.40453e-05 0
-6.52688e-05 -7.49459e-05 0
-6.6632e-05 -8.46467e-05 0
-6.2995e-05 -9.00046e-05 0
-5.91671e-05 -9.58241e-05 0
-5.74794e-05 -9.3558e-05 0
-5.42786e-05 -0.00010392 0
-4.37028e-05 -9.94937e-05 0
-3.66122e-05 -0.000107446 0
-3.23549e-05 -9.83716e-05 0
-1.81479e-05 -0.000115047 0
-3.66224e-06 -9.17964e-05 0
4.10288e-06 -0.000113918 0
7.00826e-06 -9.18944e-05 0
3.55002e-05 -0.000129945 0
5.33171e-05 -6.26578e-05 0
8.3299e-05 0.000273209 0
7.38578e-05 0.000541783 0
3.48603e-05 0.000462982 0
2.17284e-05 0.000489833 0
-1.87354e-05 0.000472163 0
-5.1485e-05 0.000504589 0
-7.60401e-05 0.000467478 0
-9.22664e-05 0.000482016 0
-0.00011402 0.000465671 0
-0.000134661 0.00046743 0
-0.000147993 0.00042966 0
-0.000156553 0.000427494 0
-0.000160484 0.000403553 0
-0.000162952 0.000372037 0
-0.000158254 0.000334781 0
-0.000149865 0.000313558 0
-0.000138189 0.000271425 0
-0.000125176 0.000229422 0
-0.000104715 0.000190854 0
-8.87444e-05 0.000158613 0
-6.96243e-05 0.000115568 0
-5.44755e-05 8.57206e-05 0
-4.05357e-05 5.89332e-05 0
-3.05729e-05 3.7404e-05 0
-2.44029e-05 1.21392e-05 0
-2.33754e-05 1.51767e-06 0
-2.67451e-05 -2.30676e-05 0
-3.24449e-05 -3.98578e-05 0
-4.29735e-05 -6.00183e-05 0
-5.4653e-05 -8.37738e-05 0
-6.81305e-05 -0.000115241 0
-7.82035e-05 -0.000135407 0
-9.37395e-05 -0.000161639 0
-0.000102199 -0.000189836 0
-0.000108509 -0.000214583 0
-0.000113062 -0.000224447 0
-0.000116902 -0.000247177 0
-0.000113156 -0.000266336 0
-0.000109344 -0.000277948 0
-0.000103069 -0.000275157 0
-9.34761e-05 -0.000302856 0
-7.81084e-05 -0.00029694 0
-6.41397e-05 -0.000307547 0
-5.3253e-05 -0.000296131 0
-3.69219e-05 -0.000323471 0
-1.45749e-05 -0.000301804 0
1.22543e-05 -0.000309745 0
2.27561e-05 -0.000300098 0
4.64397e-05 -0.000351722 0
5.28231e-05 -0.000176293 0
6.94911e-05 0.000439299 0
8.3072e-05 0.000815823 0
4.93535e-05 0.000750406 0
1.7263e-05 0.000747478 0
-3.25078e-05 0.000762977 0
-3.88881e-05 0.000739862 0
-6.18808e-05 0.000741891 0
-0.000102189 0.000732339 0
-0.000121228 0.000725893 0
-0.000130118 0.000709404 0
-0.000152009 0.000697321 0
-0.000172141 0.000666354 0
-0.00017722 0.00064207 0
-0.000175762 0.00061389 0
-0.000185532 0.00056557 0
-0.000183297 0.000517992 0
-0.000169073 0.000470915 0
-0.000157429 0.000415283 0
-0.000146375 0.000346388 0
-0.000125384 0.000289025 0
-0.000102164 0.000234025 0
-8.3769e-05 0.000172156 0
-6.7051e-05 0.000119476 0
-5.19622e-05 7.74464e-05 0
-4.25904e-05 3.65455e-05 0
-3.93878e-05 -7.34219e-06 0
-4.36733e-05 -4.41779e-05 0
-5.29628e-05 -7.81433e-05 0
-6.25062e-05 -0.000119363 0
-7.37958e-05 -0.000165436 0
-9.08059e-05 -0.00020222 0
-0.000104554 -0.000239644 0
-0.000108765 -0.000286254 0
-0.000116293 -0.00031904 0
-0.000126561 -0.000346243 0
-0.000125974 -0.000373827 0