# vtk DataFile Version 4.0
SiwiRVisFile
ASCII
DATASET STRUCTURED_POINTS
DIMENSIONS 50 50 1
ORIGIN 0 0 0
SPACING 1 1 1
POINT_DATA 2500


SCALARS flags double 1
LOOKUP_TABLE default
1
1
1
1
1
1
1
1
1
1
1
1
1
1
1
1
1
1
1
1
1
1
1
1
1
1
1
1
1
1
1
1
1
1
1
1
1
1
1
1
1
1
1
1
1
1
1
1
1
1
1
1
1
1
1
1
1
1
1
1
1
1
1
1
1
1
1
1
1
1
1
1
1
1
1
1
1
1
1
1
1
1
1
1
1
1
1
1
1
1
1
1
1
1
1
1
1
1
1
1
1
1
1
1
1
1
1
1
1
1
1
1
1
1
1
1
1
1
1
1
1
1
1
1
1
1
1
1
1
1
1
1
1
1
1
1
1
1
1
1
1
1
1
1
1
1
1
1
1
1
1
1
1
1
1
1
1
1
1
1
1
1
1
1
1
1
1
1
1
1
1
1
1
1
1
1
1
1
1
1
1
1
1
1
1
1
1
1
1
1
1
1
1
1
1
1
1
1
1
1
1
1
1
1
1
1
1
1
1
1
1
1
1
1
1
1
1
1
1
1
1
1
1
1
1
1
1
1
1
1
1
1
1
1
1
1
1
1
1
1
1
1
1
1
1
1
1
1
1
1
1
1
1
1
1
1
1
1
1
1
1
1
1
1
1
1
1
1
1
1
1
1
1
1
1
1
1
1
1
1
1
1
1
1
1
1
1
1
1
1
1
1
1
1
1
1
1
1
1
1
1
1
1
1
1
1
1
1
1
1
1
1
1
1
1
1
1
1
1
1
1
1
1
1
1
1
1
1
1
1
1
1
1
1
1
1
1
1
1
1
1
1
1
1
1
1
1
1
1
1
1
1
1
1
1
1
1
1
1
1
1
1
1
1
1
1
1
1
1
1
1
1
1
1
1
1
1
1
1
1
1
1
1
1
1
1
1
1
1
1
1
1
1
1
1
1
1
1
1
1
1
1
1
1
1
1
1
1
1
1
1
1
1
1
1
1
1
1
1
1
1
1
1
1
1
1
1
1
1
1
1
1
1
1
1
1
1
1
1
1
1
1
1
1
1
1
1
1
1
1
1
1
1
1
1
1
1
1
1
1
1
1
1
1
1
1
1
1
1
1
1
1
1
1
1
1
1
1
1
1
1
1
1
1
1
1
1
1
1
1
1
1
1
1
1
1
1
1
1
1
1
1
1
1
1
1
1
1
1
1
1
1
1
1
1
1
1
1
1
1
1
1
1
1
1
1
1
1
1
1
1
1
1
1
1
1
1
1
1
1
1
1
1
1
1
1
1
1
1
1
1
1
1
1
1
1
1
1
1
1
1
1
1
1
1
1
1
1
1
1
1
1
1
1
1
1
1
1
1
1
1
1
1
1
1
1
1
1
1
1
1
1
1
1
1
1
1
1
1
1
1
1
1
1
1
1
1
1
1
1
1
1
1
1
1
1
1
1
1
1
1
1
1
1
1
1
1
1
1
1
1
1
1
1
1
1
1
1
1
1
1
1
1
1
1
1
1
1
1
1
1
1
1
1
1
1
1
1
1
1
1
1
1
1
1
1
1
1
1
1
1
1
1
1
1
1
1
1
1
1
1
1
1
1
1
1
1
1
1
1
1
1
1
1
1
1
1
1
1
1
1
1
1
1
1
1
1
1
1
1
1
1
1
1
1
1
1
1
1
1
1
1
1
1
1
1
1
1
1
1
1
1
1
1
1
1
1
1
1
1
1
1
1
1
1
1
1
1
1
1
1
1
1
1
1
1
1
1
1
1
1
1
1
1
1
1
1
1
1
1
1
1
1
1
1
1
1
1
1
1
1
1
1
1
1
1
1
1
1
1
1
1
1
1
1
1
1
1
1
1
1
1
1
1
1
1
1
1
1
1
1
1
1
1
1
1
1
1
1
1
1
1
1
1
1
1
1
1
1
1
1
1
1
1
1
1
1
1
1
1
1
1
1
1
1
1
1
1
1
1
1
1
1
1
1
1
1
1
1
1
1
1
1
1
1
1
1
1
1
1
1
1
1
1
1
1
1
1
1
1
1
1
1
1
1
1
1
1
1
1
1
1
1
1
1
1
1
1
1
1
1
1
1
1
1
1
1
1
1
1
1
1
1
1
1
1
1
1
1
1
1
1
1
1
1
1
1
1
1
1
1
1
1
1
1
1
1
1
1
1
1
1
1
1
1
1
1
1
1
1
1
1
1
1
1
1
1
1
1
1
1
1
1
1
1
1
1
1
1
1
1
1
1
1
1
1
1
1
1
1
1
1
1
1
1
1
1
1
1
1
1
1
1
1
1
1
1
1
1
1
1
1
1
1
1
1
1
1
1
1
1
1
1
1
1
1
1
1
1
1
1
1
1
1
1
1
1
1
1
1
1
1
1
1
1
1
1
1
1
1
1
1
1
1
1
1
1
1
1
1
1
1
1
1
1
1
1
1
1
1
1
1
1
1
1
1
1
1
1
1
1
1
1
1
1
1
1
1
1
1
1
1
1
1
1
1
1
1
1
1
1
1
1
1
1
1
1
1
1
1
1
1
1
1
1
1
1
1
1
1
1
1
1
1
1
1
1
1
1
1
1
1
1
1
1
1
1
1
1
1
1
1
1
1
1
1
1
1
1
1
1
1
1
1
1
1
1
1
1
1
1
1
1
1
1
1
1
1
1
1
1
1
1
1
1
1
1
1
1
1
1
1
1
1
1
1
1
1
1
1
1
1
1
1
1
1
1
1
1
1
1
1
1
1
1
1
1
1
1
1
1
1
1
1
1
1
1
1
1
1
1
1
1
1
1
1
1
1
1
1
1
1
1
1
1
1
1
1
1
1
1
1
1
1
1
1
1
1
1
1
1
1
1
1
1
1
1
1
1
1
1
1
1
1
1
1
1
1
1
1
1
1
1
1
1
1
1
1
1
1
1
1
1
1
1
1
1
1
1
1
1
1
1
1
1
1
1
1
1
1
1
1
1
1
1
1
1
1
1
1
1
1
1
1
1
1
1
1
1
1
1
1
1
1
1
1
1
1
1
1
1
1
1
1
1
1
1
1
1
1
1
1
1
1
1
1
1
1
1
1
1
1
1
1
1
1
1
1
1
1
1
1
1
1
1
1
1
1
1
1
1
1
1
1
1
1
1
1
1
1
1
1
1
1
1
1
1
1
1
1
1
1
1
1
1
1
1
1
1
1
1
1
1
1
1
1
1
1
1
1
1
1
1
1
1
1
1
1
1
1
1
1
1
1
1
1
1
1
1
1
1
1
1
1
1
1
1
1
1
1
1
1
1
1
1
1
1
1
1
1
1
1
1
1
1
1
1
1
1
1
1
1
1
1
1
1
1
1
1
1
1
1
1
1
1
1
1
1
1
1
1
1
1
1
1
1
1
1
1
1
1
1
1
1
1
1
1
1
1
1
1
1
1
1
1
1
1
1
1
1
1
1
1
1
1
1
1
1
1
1
1
1
1
1
1
1
1
1
1
1
1
1
1
1
1
1
1
1
1
1
1
1
1
1
1
1
1
1
1
1
1
1
1
1
1
1
1
1
1
1
1
1
1
1
1
1
1
1
1
1
1
1
1
1
1
1
1
1
1
1
1
1
1
1
1
1
1
1
1
1
1
1
1
1
1
1
1
1
1
1
1
1
1
1
1
1
1
1
1
1
1
1
1
1
1
1
1
1
1
1
1
1
1
1
1
1
1
1
1
1
1
1
1
1
1
1
1
1
1
1
1
1
1
1
1
1
1
1
1
1
1
1
1
1
1
1
1
1
1
1
1
1
1
1
1
1
1
1
1
1
1
1
1
1
1
1
1
1
1
1
1
1
1
1
1
1
1
1
1
1
1
1
1
1
1
1
1
1
1
1
1
1
1
1
1
1
1
1
1
1
1
1
1
1
1
1
1
1
1
1
1
1
1
1
1
1
1
1
1
1
1
1
1
1
1
1
1
1
1
1
1
1
1
1
1
1
1
1
1
1
1
1
1
1
1
1
1
1
1
1
1
1
1
1
1
1
1
1
1
1
1
1
1
1
1
1
1
1
1
1
1
1
1
1
1
1
1
1
1
1
1
1
1
1
1
1
1
1
1
1
1
1
1
1
1
1
1
1
1
1
1
1
1
1
1
1
1
1
1
1
1
1
1
1
1
1
1
1
1
1
1
1
1
1
1
1
1
1
1
1
1
1
1
1
1
1
1
1
1
1
1
1
1
1
1
1
1
1
1
1
1
1
1
1
1
1
1
1
1
1
1
1
1
1
1
1
1
1
1
1
1
1
1
1
1
1
1
1
1
1
1
1
1
1
1
1
1
1
1
1
1
1
1
1
1
1
1
1
1
1
1
1
1
1
1
1
1
1
1
1
1
1
1
1
1
1
1
1
1
1
1
1
1
1
1
1
1
1
1
1
1
1
1
1
1
1
1
1
1
1
1
1
1
1
1
1
1
1
1
1
1
1
1
1
1
1
1
1
1
1
1
1
1
1
1
1
1
1
1
1
1
1
1
1
1
1
1
1
1
1
1
1
1
1
1
1
1
1
1
1
1
1
1
1
1
1
1
1
1
1
1
1
1
1
1
1
1
1
1
1
1
1
1
1
1
1
1
1
1
1
1
1
1
1
1
1
1
1
1
1
1
1
1
1
1
1
1
1
1
1
1
1
1
1
1
1
1
1
1
1
1
1
1
1
1
1
1
1
1
1
1
1
1
1
1
1
1
1
1
1
1
1
1
1
1
1
1
1
1
1
1
1
1
1
1
1
1
1
1
1
1
1
1
1
1
1
1
1
1
1
1
1
1
1
1
1
1
1
1
1
1
1
1
1
1
1
1
1
1
1
1
1
1
1
1
1
1
1
1
1
1
1
1
1
1
1
1
1
1
1
1
1
1
1
1
1
1
1
1
1
1
1
1
1
1
1
1
1
1
1
1
1
1
1
1
1
1
1
1
1
1
1
1
1
1
1
1
1
1
1
1
1
1
1
1
1
1
1
1
1
1
1
1
1
1
1
1
1
1
1
1
1
1
1
1
1
1
1
1
1
1
1
1
1
1
1
1
1
1
1
1
1
1
1
1
1
1
1
1
1
1
1
1
1
1
1
1
1
1
1
1
1
1
1
1
1
1
1
1
1
1
1
1
1
1
1
1
1
1
1
1
1
1
1
1
1
1
1
1
1
1
1
1
1
1
1
1
1
1
1
1
1
1
1
1
1
1
1
1
1
1
1
1
1
1
1
1
1
1
1
1
1
1
1
1
1
1
1
1
1
1
1
1
1
1
1
1
1
1
1
1
1
1
1
1
1
1
1
1
1
1
1
1
1
1
1
1
1
1
1
1
1
1
1
1
1
1
1
1
1
1
1
1
1
1
1
1
1
1
1
1
1
1
1
1
1
1
1
1
1
1
1
1
1
1
1
1
1
1
1
1
1
1
1
1
1
1
1
1
1
1
1
1
1
1
1
1
1
1
1
1
1
1
1
1
1
1
1
1
1
1
1
1
1
1
1
1
1
1
1
1
1
1
1
1
1
1
1
1
1
1
1
1
1
1
1
1
1
1
1
1
1
1
1
1
1
1
1
1
1
1
1
1
1
1
1
1
1
1
1
1
1
1
1
1
1
1
1
1
1
1
1
1
1
1
1
1
1
1
1
1
1
1
1
1
1
1
1
1
1
1
1
1
1
1
1
1
1
1
1

SCALARS density double 1
LOOKUP_TABLE default
0.996254
0.996338
0.996394
0.996502
0.996597
0.996634
0.996702
0.996733
0.996774
0.996806
0.996828
0.996801
0.99683
0.996853
0.996833
0.996835
0.996931
0.997017
0.997103
0.997327
0.997623
0.997927
0.998293
0.998801
0.99928
0.999719
1.00019
1.00066
1.00098
1.00125
1.00151
1.0017
1.00177
1.00186
1.00197
1.00198
1.00199
1.00205
1.0021
1.00209
1.00213
1.00218
1.0022
1.00223
1.00228
1.00231
1.00233
1.00241
1.00242
1.00244
0.996447
0.996513
0.996526
0.996596
0.996635
0.996633
0.996737
0.996787
0.996776
0.996845
0.996919
0.996931
0.996963
0.997049
0.997079
0.99712
0.997223
0.997335
0.997443
0.997628
0.997887
0.998146
0.998461
0.998857
0.999266
0.999645
1.00005
1.00045
1.00077
1.00103
1.00129
1.00149
1.00161
1.00173
1.00184
1.0019
1.00194
1.00202
1.00206
1.00208
1.00214
1.0022
1.00219
1.00222
1.00229
1.00229
1.0023
1.00235
1.00235
1.00237
0.996704
0.996768
0.996801
0.996756
0.996755
0.996805
0.996801
0.996842
0.996914
0.996946
0.997006
0.997116
0.997203
0.997264
0.997397
0.997551
0.997624
0.99776
0.997974
0.998132
0.99827
0.998522
0.998793
0.998981
0.999237
0.99958
0.999854
1.00009
1.00042
1.00074
1.00093
1.00115
1.00139
1.00155
1.00163
1.00178
1.00189
1.00193
1.00199
1.00208
1.00211
1.00211
1.00218
1.00221
1.00219
1.00223
1.00224
1.00222
1.00222
1.00228
0.997186
0.997144
0.997087
0.997048
0.997026
0.997091
0.997007
0.997036
0.997101
0.997137
0.997173
0.997275
0.99741
0.997505
0.997668
0.997852
0.998047
0.998233
0.998449
0.998658
0.998823
0.998987
0.999114
0.999235
0.999326
0.999464
0.999604
0.999801
1.00002
1.00029
1.00055
1.00083
1.00108
1.00129
1.00148
1.00163
1.00176
1.00182
1.00191
1.00197
1.002
1.00202
1.00206
1.00208
1.00203
1.00208
1.00207
1.00207
1.00204
1.00203
0.997618
0.997497
0.997426
0.99748
0.997396
0.997375
0.997391
0.997394
0.997353
0.997408
0.997463
0.997481
0.997564
0.997741
0.997869
0.998037
0.998323
0.998599
0.998798
0.999053
0.999316
0.999399
0.999441
0.9995
0.999506
0.999403
0.999451
0.999577
0.999706
0.999882
1.00022
1.00053
1.00076
1.00105
1.00131
1.00146
1.00156
1.00171
1.00177
1.00177
1.00182
1.00188
1.00185
1.00185
1.0019
1.00189
1.00183
1.00189
1.00186
1.0018
0.997897
0.997809
0.99776
0.997815
0.997723
0.997717
0.997733
0.997743
0.997722
0.997713
0.99778
0.997782
0.997837
0.997935
0.998097
0.998268
0.99849
0.998777
0.999059
0.999309
0.999501
0.999666
0.999723
0.999688
0.999603
0.999551
0.999467
0.999451
0.999533
0.99972
0.999924
1.0002
1.00051
1.0008
1.00102
1.00122
1.00138
1.00148
1.00156
1.00158
1.00165
1.00166
1.00167
1.00169
1.0017
1.00171
1.00166
1.0017
1.00167
1.00164
0.998014
0.99802
0.997946
0.9979
0.997911
0.997962
0.997894
0.997932
0.997998
0.998004
0.997997
0.998108
0.998178
0.998218
0.998365
0.998579
0.998731
0.998918
0.999207
0.999401
0.999517
0.999683
0.999798
0.999758
0.99971
0.999721
0.999636
0.999532
0.999576
0.999671
0.999752
0.999927
1.00023
1.00046
1.00067
1.00093
1.00114
1.00123
1.00133
1.00147
1.00148
1.0015
1.00156
1.0016
1.00155
1.00159
1.00162
1.00158
1.00152
1.00156
0.998033
0.998013
0.997959
0.997947
0.997923
0.997971
0.997964
0.99799
0.998053
0.998118
0.998197
0.99828
0.998428
0.998585
0.998712
0.998879
0.999059
0.999192
0.999267
0.999385
0.999503
0.999541
0.999613
0.999734
0.999828
0.999802
0.999833
0.999834
0.999757
0.999675
0.999711
0.999796
0.999881
1.0001
1.00036
1.00061
1.00081
1.00104
1.00121
1.0013
1.0014
1.00146
1.0015
1.00151
1.00152
1.00155
1.00152
1.00153
1.00151
1.0015
0.998005
0.997943
0.997936
0.998007
0.997936
0.997946
0.997992
0.998048
0.998016
0.998138
0.998301
0.998398
0.998587
0.998844
0.999065
0.999181
0.999363
0.99947
0.999429
0.999399
0.999422
0.999422
0.999429
0.999623
0.999784
0.999897
0.999988
1.00007
0.999944
0.999816
0.999742
0.999678
0.999656
0.999804
1.00006
1.00026
1.00055
1.00084
1.00106
1.00117
1.00133
1.00144
1.00142
1.00146
1.0015
1.0015
1.00145
1.0015
1.00151
1.00146
0.997909
0.997975
0.997937
0.998001
0.998009
0.998027
0.998008
0.998062
0.998126
0.998178
0.998311
0.998537
0.998744
0.998964
0.999241
0.99948
0.999548
0.999595
0.999618
0.99951
0.999377
0.999367
0.99945
0.999486
0.999662
0.999919
1.00007
1.00006
1.00009
1
0.9998
0.999641
0.999642
0.999675
0.999757
1.00004
1.00035
1.0006
1.00084
1.0011
1.00125
1.00131
1.0014
1.00145
1.00144
1.00146
1.00147
1.0015
1.00145
1.0015
0.997864
0.998012
0.997984
0.997992
0.998028
0.99811
0.998048
0.998114
0.99825
0.998323
0.998444
0.998667
0.998946
0.999102
0.999338
0.999547
0.999632
0.999628
0.999636
0.999608
0.999492
0.999458
0.999495
0.999534
0.999623
0.999798
0.999927
1.00002
1.00008
1.00006
0.999916
0.999815
0.999722
0.999652
0.999685
0.999865
1.00012
1.00033
1.00065
1.00092
1.0011
1.00122
1.00137
1.00144
1.00141
1.00148
1.0015
1.00149
1.00145
1.00153
0.997932
0.997968
0.99798
0.998055
0.998005
0.998062
0.998164
0.998237
0.998317
0.99853
0.998741
0.998898
0.99911
0.999363
0.999448
0.99948
0.999592
0.999623
0.999553
0.999577
0.999681
0.999654
0.999597
0.999676
0.999693
0.999632
0.999718
0.999905
0.999955
0.999985
1.00009
1.00003
0.999849
0.999752
0.999767
0.999741
0.999831
1.00014
1.00041
1.00064
1.00091
1.00117
1.00127
1.00135
1.00147
1.00151
1.00146
1.00152
1.00153
1.00151
0.998019
0.99799
0.997991
0.998104
0.998034
0.998094
0.998211
0.998366
0.998468
0.998687
0.999002
0.999184
0.999342
0.999504
0.999569
0.999518
0.999465
0.999502
0.999508
0.999567
0.999694
0.999801
0.999823
0.999774
0.999722
0.999628
0.999622
0.999674
0.999812
0.999991
1.00012
1.00015
1.00007
0.999981
0.999811
0.99971
0.999756
0.99992
1.00015
1.0004
1.00076
1.00101
1.00117
1.00133
1.00143
1.00149
1.00146
1.00154
1.00154
1.00152
0.998039
0.998138
0.998059
0.998049
0.998121
0.998234
0.998224
0.998415
0.998672
0.99888
0.999083
0.999406
0.999579
0.999552
0.999602
0.999592
0.999456
0.999367
0.999516
0.999603
0.999642
0.999819
0.99995
0.999856
0.999724
0.999732
0.999621
0.999558
0.999729
0.999965
1.00005
1.00015
1.00027
1.00012
0.99991
0.999815
0.999801
0.99975
0.999933
1.00029
1.00054
1.0008
1.0011
1.00132
1.00135
1.00146
1.00156
1.00154
1.00148
1.00158
0.998091
0.998139
0.998056
0.998088
0.998108
0.998263
0.998322
0.998497
0.998781
0.999049
0.999262
0.999438
0.999614
0.999635
0.999554
0.999525
0.999506
0.999478
0.999475
0.9996
0.99972
0.999761
0.999825
0.999866
0.999846
0.999743
0.999705
0.999702
0.999733
0.999792
0.999981
1.00017
1.00021
1.00021
1.00014
1
0.999813
0.999777
0.999895
1.00005
1.00032
1.00065
1.00097
1.00119
1.00134
1.00149
1.00153
1.00158
1.00155
1.00159
0.998148
0.997998
0.998013
0.998209
0.998113
0.998231
0.998504
0.998774
0.998893
0.999225
0.999499
0.999501
0.999517
0.999594
0.999545
0.999396
0.999502
0.99961
0.99956
0.99961
0.999736
0.999713
0.999656
0.999795
0.999876
0.999817
0.999831
0.999899
0.999786
0.99975
0.999915
1.00006
1.00011
1.00026
1.00035
1.00013
0.999973
0.999921
0.999857
0.999842
1.00013
1.00049
1.00069
1.001
1.00132
1.00146
1.00144
1.00161
1.00167
1.00157
0.99804
0.998044
0.998031
0.998177
0.998218
0.998429
0.998657
0.998972
0.999225
0.999396
0.99956
0.999613
0.999527
0.99942
0.999426
0.999457
0.999461
0.999566
0.999729
0.999706
0.999627
0.999649
0.999686
0.999665
0.999752
0.999951
0.999999
0.999916
0.999906
0.999892
0.99983
0.999865
1.00012
1.00029
1.0003
1.00032
1.00024
1.00001
0.999838
0.999861
0.999997
1.00018
1.00052
1.00086
1.00111
1.00134
1.00147
1.00158
1.0016
1.00166
0.997884
0.998113
0.998066
0.998058
0.998304
0.998656
0.998737
0.999027
0.999415
0.999544
0.999499
0.999547
0.99956
0.999333
0.999308
0.999465
0.999511
0.999541
0.999687
0.999761
0.999618
0.999606
0.999669
0.999641
0.999732
0.999933
1.00004
0.999992
1.00002
0.999986
0.999829
0.999895
1.00006
1.00017
1.00028
1.00045
1.0004
1.00012
1.00002
0.999972
0.999898
1.00003
1.00042
1.00075
1.00092
1.00126
1.00154
1.00155
1.00155
1.00174
0.997912
0.997942
0.998
0.998216
0.99835
0.998637
0.998964
0.999214
0.999388
0.999584
0.999605
0.999467
0.999419
0.999463
0.99939
0.999379
0.999589
0.999658
0.999589
0.999613
0.999726
0.999637
0.999568
0.999736
0.999823
0.999813
0.99992
1.00013
1.00007
0.999956
1.00002
1
0.999923
1.00004
1.00033
1.00039
1.00034
1.00037
1.00022
0.999956
0.999905
1.00005
1.00021
1.00048
1.00089
1.00118
1.00135
1.00158
1.00168
1.00166
0.997932
0.997824
0.998005
0.998397
0.998491
0.998732
0.999181
0.999482
0.999458
0.999525
0.999627
0.99944
0.999314
0.999414
0.999532
0.999494
0.999534
0.99966
0.999576
0.999541
0.999618
0.999675
0.99969
0.999747
0.999827
0.999802
0.999901
1.00001
1.00006
1.0001
1.00012
1.00005
0.999949
1.00009
1.00019
1.00026
1.00045
1.00052
1.00035
1.00009
1.00005
1.00001
0.99999
1.00029
1.00073
1.00102
1.00119
1.00154
1.00173
1.00164
0.997809
0.998075
0.998183
0.998318
0.998729
0.999134
0.999258
0.999481
0.999672
0.999514
0.999295
0.999366
0.999372
0.999263
0.999452
0.999665
0.999585
0.999473
0.999626
0.999597
0.999479
0.999664
0.999867
0.999781
0.999723
0.999915
0.999891
0.999827
1.00003
1.00024
1.00013
1.00006
1.00018
1.00007
1.00002
1.0003
1.00056
1.00049
1.00048
1.00049
1.00017
0.999922
1.00006
1.00024
1.00038
1.0008
1.00125
1.00138
1.0015
1.00176
0.99788
0.998225
0.998317
0.998464
0.998901
0.999357
0.999397
0.99948
0.999618
0.999491
0.999231
0.999215
0.9994
0.999397
0.999421
0.999623
0.99967
0.999552
0.999512
0.999608
0.999642
0.999671
0.999779
0.999862
0.999859
0.999819
0.999819
0.999891
1.00002
1.00007
1.00015
1.00024
1.00017
1.00005
1.00009
1.00027
1.00036
1.00046
1.00066
1.00059
1.0003
1.0001
1.00011
1.00013
1.00024
1.00066
1.00108
1.00129
1.00142
1.00168
0.998241
0.998084
0.998396
0.998943
0.999064
0.999223
0.99963
0.999687
0.999356
0.999364
0.999475
0.999267
0.999255
0.999562
0.999614
0.99942
0.999554
0.999663
0.999486
0.999509
0.999763
0.999752
0.999659
0.999852
0.999954
0.999764
0.999813
1
0.999942
0.999954
1.00023
1.00032
1.00015
1.0002
1.0003
1.00012
1.00021
1.00058
1.00063
1.00046
1.00052
1.00042
1.00002
1
1.00038
1.00053
1.00069
1.00123
1.00156
1.00141
0.998293
0.998292
0.99863
0.999068
0.999262
0.999411
0.999599
0.999638
0.999415
0.999248
0.999376
0.999427
0.999372
0.999435
0.999588
0.999517
0.999369
0.99948
0.999639
0.999613
0.99963
0.999791
0.999842
0.999763
0.999764
0.999941
0.99994
0.999847
0.99991
1.00009
1.00014
1.00016
1.00033
1.00041
1.00023
1.00018
1.00035
1.00045
1.0005
1.00064
1.00071
1.00044
1.00019
1.00013
1.00021
1.00037
1.00065
1.00102
1.00135
1.00145
0.998186
0.998757
0.998873
0.99887
0.999406
0.999805
0.999428
0.999301
0.999517
0.999339
0.99906
0.999398
0.999644
0.999391
0.999393
0.999627
0.999474
0.999355
0.999633
0.99983
0.999648
0.999726
0.999913
0.99975
0.999757
0.999942
0.999991
0.999831
0.999984
1.0001
0.999944
1.00014
1.00042
1.00034
1.0002
1.00038
1.00039
1.00021
1.00052
1.00089
1.00067
1.00048
1.00058
1.00034
0.99996
1.00028
1.0008
1.00082
1.00098
1.00152
0.998586
0.998729
0.998965
0.999298
0.999528
0.999631
0.999568
0.999357
0.999239
0.999303
0.999338
0.999327
0.999518
0.999629
0.999465
0.999377
0.99958
0.99959
0.999537
0.999657
0.999875
0.999745
0.999629
0.999855
0.999905
0.999825
0.999866
1.00013
1.00004
0.99988
1.00009
1.00023
1.00021
1.00026
1.00048
1.00039
1.0002
1.00035
1.00056
1.00059
1.00074
1.00084
1.00061
1.00031
1.00025
1.00023
1.00039
1.00077
1.00106
1.00112
0.998906
0.998579
0.999049
0.999771
0.99955
0.999278
0.999584
0.999541
0.998979
0.999126
0.999612
0.999452
0.999246
0.999561
0.999615
0.999287
0.99938
0.999751
0.999616
0.999554
0.999762
0.999813
0.999667
0.999764
0.999931
0.999827
0.999966
1.00009
0.999992
1
1.00017
1.00015
1.00008
1.00045
1.00058
1.0003
1.00034
1.00059
1.00044
1.00039
1.0009
1.00106
1.00057
1.00045
1.0006
1.00027
1.00008
1.0007
1.00113
1.00088
0.998723
0.999136
0.999402
0.999373
0.999581
0.999612
0.999244
0.999182
0.999355
0.999288
0.999286
0.99956
0.99952
0.999262
0.999376
0.99957
0.99946
0.99948
0.999835
0.999764
0.999579
0.999739
0.999941
0.99977
0.999716
1.00004
1.00003
0.999847
1.00001
1.00021
1.00003
0.999948
1.00032
1.0004
1.0003
1.00052
1.00065
1.00037
1.00036
1.00071
1.00075
1.00073
1.00098
1.00084
1.00034
1.00031
1.00051
1.00038
1.0006
1.00106
0.99888
0.999654
0.999576
0.999197
0.999572
0.999759
0.999139
0.998964
0.999498
0.999542
0.999193
0.999374
0.999678
0.999309
0.999173
0.999557
0.999677
0.999521
0.999607
0.99984
0.999697
0.999665
0.999799
0.999856
0.999867
0.999913
0.99995
0.999975
1.00011
1.00009
0.999987
1.0002
1.00029
1.00017
1.00033
1.0007
1.00061
1.00031
1.00059
1.00077
1.00054
1.00069
1.00116
1.00095
1.00039
1.00042
1.00062
1.0003
1.00025
1.00084
0.999713
0.99921
0.999429
0.999909
0.999455
0.999028
0.999381
0.999399
0.998996
0.999322
0.999661
0.99929
0.999133
0.999549
0.99949
0.999245
0.999572
0.999824
0.999511
0.999493
0.999872
0.99976
0.999573
0.999886
1.00006
0.999774
0.999869
1.0002
1.00006
0.999943
1.0003
1.00034
1.00003
1.00024
1.00061
1.00043
1.00039
1.00085
1.00071
1.00035
1.00075
1.00113
1.00079
1.00081
1.00115
1.0006
1.00006
1.00051
1.00072
1.00014
0.999859
0.999393
0.99966
0.999956
0.999442
0.998986
0.999315
0.999493
0.999142
0.999186
0.99959
0.999446
0.999129
0.999348
0.999682
0.999481
0.999441
0.999684
0.999705
0.999546
0.999647
0.999852
0.99983
0.999832
0.999856
0.999952
0.999992
0.999968
0.999962
1.00018
1.0003
1.00013
1.00016
1.00042
1.00039
1.00026
1.00063
1.00085
1.00056
1.0005
1.00086
1.00093
1.00078
1.00099
1.00115
1.00069
1.00025
1.00032
1.0005
1.0002
0.999514
1.00043
1.00005
0.999083
0.999448
0.999792
0.998927
0.998885
0.999727
0.999492
0.998856
0.999329
0.999637
0.999142
0.999203
0.999841
0.999644
0.999311
0.999627
0.999821
0.999522
0.999646
1.00001
0.999827
0.999763
1.00002
1.00004
0.999831
1.00012
1.00032
1.00005
1.00019
1.00053
1.00027
1.00007
1.00068
1.00083
1.00039
1.00069
1.00117
1.0006
1.00044
1.00135
1.00136
1.00055
1.00083
1.0011
1.00008
0.999701
1.00058
1.00031
1.00039
0.999932
0.999488
0.99943
0.999406
0.999184
0.999117
0.999374
0.999491
0.999169
0.999076
0.999382
0.999446
0.999307
0.999506
0.999785
0.999595
0.99947
0.999637
0.999796
0.99966
0.999677
0.99996
0.999984
0.999861
0.999876
1.00016
1.00019
1.00003
1.00018
1.00041
1.00031
1.00014
1.00043
1.00063
1.00049
1.00062
1.00095
1.00085
1.00064
1.00087
1.00108
1.00109
1.0011
1.00094
1.00069
1.00036
0.999982
0.999818
1.0011
0.999582
0.999704
1.0005
0.999295
0.998497
0.99958
0.999841
0.998768
0.998992
0.999825
0.999203
0.998742
0.99953
0.999815
0.999263
0.999432
0.999953
0.999593
0.99941
0.999742
0.999805
0.999606
0.999826
1.00006
0.999808
0.999989
1.00023
1.00005
1.00007
1.00042
1.00032
0.999998
1.00047
1.0007
1.00017
1.0004
1.0012
1.00084
1.00031
1.00112
1.00139
1.00049
1.00083
1.00188
1.00111
1.00001
1.00066
1.00073
0.999326
1.00046
1.00051
1.00028
0.999543
0.999391
0.999378
0.999141
0.999257
0.999389
0.999115
0.999021
0.999366
0.999283
0.999128
0.999441
0.999676
0.999443
0.999444
0.999811
0.999691
0.999489
0.999669
0.99992
0.9998
0.999737
1.00009
1.0001
0.999924
1.0001
1.00036
1.00022
1.00008
1.00047
1.00055
1.00029
1.00048
1.00082
1.0007
1.00066
1.00111
1.00103
1.00075
1.0011
1.0013
1.001
1.00113
1.00115
1.00018
0.999888
1.00019
1.0002
1.00156
1.00043
0.998737
0.999493
1.00019
0.998855
0.998547
0.999772
0.999497
0.998438
0.999081
0.999915
0.999208
0.999012
0.999736
0.99975
0.999296
0.999574
0.999954
0.999591
0.999579
0.999881
0.999827
0.999825
1.00003
1.00006
0.999958
1.00024
1.00029
0.999967
1.00033
1.00066
1.00024
1.0002
1.00091
1.00078
1.00014
1.00092
1.00161
1.00069
1.0005
1.00169
1.00148
1.00045
1.00117
1.00178
1.00026
0.999263
1.00038
1.00175
1.00026
0.999873
1.00038
0.999438
0.998772
0.999564
0.999502
0.998616
0.998982
0.999509
0.999041
0.99895
0.99969
0.999568
0.999145
0.999451
0.999791
0.999515
0.99945
0.99986
0.999761
0.999555
0.999828
1.00001
0.999882
0.999962
1.00027
1.00015
1.00002
1.00041
1.00046
1.00018
1.00044
1.00082
1.00049
1.00031
1.00105
1.00105
1.00057
1.00115
1.00164
1.00077
1.00083
1.0019
1.00125
1.0003
1.00102
1.00071
0.998985
1.00174
0.999821
1.0001
1.00088
0.999399
0.998398
0.999584
0.999814
0.998447
0.998533
0.999653
0.999292
0.99869
0.999429
0.999907
0.999225
0.999187
0.999736
0.999666
0.999443
0.999683
0.999908
0.99973
0.999721
0.999893
0.99996
1.00015
1.00015
0.999992
1.00022
1.00049
1.00026
1.00016
1.00073
1.0008
1.00018
1.0006
1.00132
1.00077
1.00046
1.00155
1.00171
1.00058
1.00094
1.00206
1.00131
1.00027
1.00084
1.00102
0.999519
1.0002
1.0021
1.001
0.9986
0.99954
1.00044
0.998563
0.99828
0.999746
0.9992
0.9982
0.999219
0.9999
0.999068
0.99904
0.999919
0.999603
0.999093
0.999567
0.999869
0.999577
0.99966
1.00001
0.99976
0.999667
1.00015
1.00015
0.999887
1.0002
1.00039
1.00008
1.00028
1.00082
1.00044
1.0001
1.00096
1.00107
1.00022
1.00077
1.00185
1.00096
1.00043
1.00202
1.00191
1.00016
1.00132
1.0025
1.00013
0.999172
1.00122
1.00127
1.00195
1.00052
0.999162
0.999661
0.999953
0.998807
0.998338
0.999187
0.999297
0.998519
0.998935
0.999655
0.999379
0.999119
0.999519
0.99968
0.999272
0.99933
0.999684
0.999719
0.99972
0.999799
0.999822
0.999866
0.999967
1.00002
1.00012
1.0003
1.00023
1.00015
1.00054
1.0007
1.00031
1.0005
1.00101
1.00076
1.00044
1.00111
1.00154
1.00085
1.00104
1.00188
1.00152
1.00089
1.00129
1.00171
1.00096
0.999876
1.00004
1.0033
0.999405
0.999827
1.00205
0.999366
0.997449
0.999765
0.999962
0.997562
0.998202
1.0001
0.99912
0.998371
0.999692
1.00002
0.999006
0.999145
0.999889
0.999497
0.999231
0.999826
0.999927
0.999619
0.999825
1.00002
0.999845
1.00001
1.00033
1.00009
1.00008
1.00062
1.00044
1.00005
1.00077
1.00109
1.00018
1.00038
1.00172
1.00108
0.999981
1.00176
1.0026
1.00036
1.00064
1.00318
1.00156
0.999305
1.00185
1.0023
0.998565
1.00125
1.00098
1.00097
1.00016
0.999496
0.998986
0.998802
0.998787
0.998604
0.998587
0.998938
0.999318
0.999156
0.999269
0.999519
0.999472
0.999343
0.999376
0.999548
0.999592
0.999609
0.999739
0.999847
0.999874
0.999887
0.999977
1.00008
1.00009
1.00017
1.00034
1.00036
1.00033
1.00053
1.00071
1.00063
1.00058
1.00092
1.00107
1.00084
1.00116
1.0015
1.00146
1.00145
1.00164
1.00152
1.0015
1.00163
1.00065
1.00078
1.00135
0.999965
1.00424
1.00157
0.997295
0.99966
1.00136
0.997628
0.996959
0.999897
0.999374
0.99756
0.998957
1.00038
0.999095
0.998692
0.99985
0.999688
0.998893
0.999347
0.999904
0.999538
0.999504
0.999968
0.999902
0.999806
1.00009
1.00003
0.999964
1.00044
1.00044
0.999971
1.00047
1.00108
1.00036
1.00014
1.00142
1.00123
0.999877
1.00111
1.00258
1.00079
1.00011
1.00308
1.00276
0.999372
1.00144
1.00409
1.00033
0.998459
1.00255
1.00358
1.00062
0.999986
1.00112
0.99938
0.997975
0.998977
0.99886
0.997865
0.998476
0.999338
0.999158
0.998959
0.999596
0.999628
0.999151
0.999259
0.999562
0.999492
0.999434
0.999688
0.999802
0.999758
0.999922
1.00004
0.99993
0.99998
1.0002
1.00023
1.00024
1.00043
1.00048
1.00041
1.00064
1.00091
1.00063
1.00064
1.0013
1.00121
1.00087
1.0015
1.00214
1.00125
1.00129
1.00272
1.00168
1.00024
1.00249
1.00235
0.99882
1.00395
0.998255
1.00001
1.00322
0.998743
0.996101
0.99936
0.999799
0.996934
0.99779
1.00014
0.999221
0.998387
0.999724
1.00002
0.998841
0.998921
0.999755
0.999464
0.999196
0.999715
0.999855
0.999673
0.999945
1.00009
0.999834
1.00001
1.00032
1.00009
1.00018
1.00076
1.00051
1.00009
1.00094
1.00129
1.0002
1.0005
1.00206
1.00124
0.999975
1.00215
1.00315
1.00029
1.00067
1.00431
1.00228
0.998762
1.00251
1.00417
0.999553
0.998944
1.0044
1.0021
0.996809
0.99921
1.00063
0.997301
0.996721
0.999383
0.999288
0.997888
0.999097
1.00023
0.999355
0.998854
0.999528
0.999516
0.998968
0.99935
0.999821
0.999626
0.999593
0.999946
0.99999
0.999906
1.00005
1.00005
1.00005
1.00036
1.0004
1.00017
1.00053
1.00094
1.00043
1.00042
1.00131
1.00114
1.00024
1.00121
1.00247
1.00096
1.00052
1.00316
1.00282
0.99979
1.00182
1.00507
1.00015
0.998935
1.00554
1.0013
1.00515
1.00067
0.996355
0.999309
1.00017
0.996685
0.996522
0.999233
0.998996
0.998012
0.999307
1.00019
0.999207
0.998931
0.999577
0.99931
0.998854
0.999359
0.999744
0.99955
0.999703
1.00007
0.999909
0.99983
1.00011
1.00005
0.999933
1.00038
1.00053
1.00019
1.0005
1.00106
1.00054
1.0003
1.00133
1.00137
1.00027
1.00115
1.0026
1.00126
1.00044
1.00316
1.00326
0.999991
1.00145
1.00518
1.00172
0.999138
1.00254
1.00639
0.994278
0.998071
1.00436
0.998279
0.994444
0.998817
0.999785
0.996658
0.997704
1.00053
0.999769
0.998465
0.999687
1.00005
0.998725
0.998695
0.999593
0.999488
0.999243
0.999794
1.00004
0.999775
0.999918
1.00006
0.999915
1.00009
1.00031
1.00006
1.00025
1.00085
1.00052
1.00011
1.001
1.00133
1.00011
1.00056
1.00228
1.00116
0.999897
1.00253
1.00356
0.999829
1.00074
1.00568
1.0023
0.99711
1.00503
1.00829
0.995931
0.999701
0.99861
1.00026
1.00063
0.997057
0.996928
0.998082
0.997746
0.997224
0.998929
0.999629
0.999368
0.999369
0.999892
0.999286
0.998767
0.999024
0.999308
0.999183
0.999493
0.999951
0.999919
0.999768
1.00003
1.00005
0.999831
0.999968
1.00033
1.00021
1.00021
1.00068
1.00079
1.00036
1.00066
1.00116
1.00078
1.00049
1.00157
1.0017
1.00092
1.00147
1.00294
1.00175
1.00099
1.00296
1.00359
1.00028
1.00228
1.00557
1.00584
0.998434
1.01268
1.00114
0.992923
0.99892
1.0012
0.995193
0.99557
0.999704
0.999572
0.997713
0.999893
1.00106
0.999274
0.998583
0.999528
0.999099
0.998373
0.999199
0.999953
0.999696
0.999866
1.00024
0.999926
0.99977
1.00012
0.999942
0.999835
1.00052
1.00062
1.00001
1.00066
1.00138
1.00026
0.999953
1.00179
1.00147
0.999526
1.00136
1.00373
1.00051
0.999558
1.00492
1.00404
0.997002
1.00263
1.00966
0.998232
0.994248
1.02086

VECTORS velocity double
3.70245e-05 8.02316e-06 0
4.75457e-05 6.90582e-05 0
-2.961e-05 6.68469e-06 0
-3.09462e-05 1.44677e-05 0
-4.3649e-05 9.58151e-06 0
-7.4956e-05 2.2246e-05 0
-0.0001047 3.36133e-06 0
-0.000115704 1.55108e-07 0
-0.000131435 -5.84686e-06 0
-0.000158478 2.53455e-06 0
-0.000179822 -1.55265e-05 0
-0.000186992 -6.30533e-06 0
-0.000212227 -5.40982e-06 0
-0.00023457 5.22123e-06 0
-0.000251836 8.05775e-06 0
-0.00027318 3.25111e-05 0
-0.000301175 4.52217e-05 0
-0.00032305 6.50915e-05 0
-0.000345359 8.07979e-05 0
-0.000371755 9.94855e-05 0
-0.000395127 0.000104328 0
-0.000413999 0.000107227 0
-0.000426892 0.000101398 0
-0.000433638 8.80286e-05 0
-0.000429089 6.66558e-05 0
-0.000414804 4.6238e-05 0
-0.000392644 2.1516e-05 0
-0.000363001 7.44845e-07 0
-0.000332025 -1.62762e-05 0
-0.000300184 -2.69514e-05 0
-0.000270536 -3.76813e-05 0
-0.000243774 -3.65284e-05 0
-0.000223772 -3.88861e-05 0
-0.000206109 -3.60161e-05 0
-0.000186001 -3.80787e-05 0
-0.00017246 -2.76546e-05 0
-0.000161493 -3.42844e-05 0
-0.000146668 -3.14908e-05 0
-0.000128969 -3.47943e-05 0
-0.000126209 -2.88619e-05 0
-0.000110275 -4.50369e-05 0
-9.0988e-05 -3.73456e-05 0
-7.88041e-05 -4.13273e-05 0
-7.18729e-05 -4.03609e-05 0
-4.85823e-05 -5.55109e-05 0
-2.65263e-05 -4.15921e-05 0
-1.68565e-05 -4.84517e-05 0
-1.29195e-05 -3.50816e-05 0
3.47592e-05 -7.95322e-05 0
3.62615e-05 -2.47885e-05 0
5.53629e-05 5.06238e-07 0
0.000110222 0.00019102 0
8.08287e-06 0.000131967 0
-4.22822e-05 8.52925e-05 0
-8.46253e-05 9.72943e-05 0
-0.000149124 0.000116229 0
-0.000182441 7.1603e-05 0
-0.000219806 6.53911e-05 0
-0.000269538 7.05083e-05 0
-0.000311009 6.37926e-05 0
-0.000338186 3.66537e-05 0
-0.000377468 5.09107e-05 0
-0.000416123 6.28056e-05 0
-0.000450883 7.02938e-05 0
-0.000484027 8.45117e-05 0
-0.000521077 0.000131448 0
-0.000558701 0.000159149 0
-0.000596132 0.000197444 0
-0.000634357 0.000230451 0
-0.000674462 0.000268027 0
-0.00071072 0.000273698 0
-0.000740112 0.000278712 0
-0.000761783 0.000258097 0
-0.000769727 0.000227242 0
-0.000761111 0.000172274 0
-0.000739676 0.00012357 0
-0.000705015 5.67908e-05 0
-0.000657097 6.69079e-06 0
-0.000605624 -4.34142e-05 0
-0.000555657 -7.52888e-05 0
-0.000504392 -0.000110985 0
-0.000458077 -0.000115038 0
-0.000421568 -0.000127811 0
-0.000389095 -0.000129075 0
-0.000358897 -0.000135387 0
-0.00033238 -0.000120115 0
-0.000311244 -0.000127991 0
-0.000286238 -0.000135512 0
-0.000260866 -0.00013165 0
-0.000232468 -0.000127876 0
-0.00021438 -0.000147733 0
-0.000185359 -0.000154186 0
-0.000149733 -0.000145727 0
-0.000122347 -0.0001478 0
-9.85249e-05 -0.000179016 0
-5.46688e-05 -0.000158359 0
-2.15201e-05 -0.000156638 0
7.65181e-06 -0.000167838 0
7.72351e-05 -0.000219271 0
4.70947e-05 -5.86218e-05 0
2.37164e-05 3.1962e-05 0
4.15894e-05 0.000251365 0
4.20477e-05 0.00036601 0
-3.79897e-05 0.000221872 0
-0.000122973 0.000275921 0
-0.000134253 0.000251773 0
-0.000175218 0.000240067 0
-0.000231948 0.000244064 0
-0.000276918 0.000233993 0
-0.000284977 0.000226567 0
-0.000325787 0.000222223 0
-0.000369657 0.000222399 0
-0.000382161 0.000222646 0
-0.000397661 0.00022914 0
-0.00043168 0.000242463 0
-0.00046135 0.00025472 0
-0.000478355 0.000281167 0
-0.000514134 0.000302583 0
-0.000558624 0.000316336 0
-0.000599302 0.000333868 0
-0.000640634 0.000343891 0
-0.000687413 0.000336328 0
-0.000723596 0.000313598 0
-0.000744442 0.000288465 0
-0.000751645 0.000245185 0
-0.000738963 0.000183308 0
-0.000708398 0.000120228 0
-0.000667303 5.99299e-05 0
-0.000612185 -1.04649e-05 0
-0.000551257 -7.53338e-05 0
-0.000501086 -0.000125549 0
-0.000453077 -0.000166545 0
-0.000403717 -0.0002051 0
-0.000366204 -0.000231038 0
-0.000347803 -0.000240363 0