# vtk DataFile Version 4.0
SiwiRVisFile
ASCII
DATASET STRUCTURED_POINTS
DIMENSIONS 50 50 1
ORIGIN 0 0 0
SPACING 1 1 1
POINT_DATA 2500


SCALARS flags double 1
LOOKUP_TABLE default
1
1
1
1
1
1
1
1
1
1
1
1
1
1
1
1
1
1
1
1
1
1
1
1
1
1
1
1
1
1
1
1
1
1
1
1
1
1
1
1
1
1
1
1
1
1
1
1
1
1
1
1
1
1
1
1
1
1
1
1
1
1
1
1
1
1
1
1
1
1
1
1
1
1
1
1
1
1
1
1
1
1
1
1
1
1
1
1
1
1
1
1
1
1
1
1
1
1
1
1
1
1
1
1
1
1
1
1
1
1
1
1
1
1
1
1
1
1
1
1
1
1
1
1
1
1
1
1
1
1
1
1
1
1
1
1
1
1
1
1
1
1
1
1
1
1
1
1
1
1
1
1
1
1
1
1
1
1
1
1
1
1
1
1
1
1
1
1
1
1
1
1
1
1
1
1
1
1
1
1
1
1
1
1
1
1
1
1
1
1
1
1
1
1
1
1
1
1
1
1
1
1
1
1
1
1
1
1
1
1
1
1
1
1
1
1
1
1
1
1
1
1
1
1
1
1
1
1
1
1
1
1
1
1
1
1
1
1
1
1
1
1
1
1
1
1
1
1
1
1
1
1
1
1
1
1
1
1
1
1
1
1
1
1
1
1
1
1
1
1
1
1
1
1
1
1
1
1
1
1
1
1
1
1
1
1
1
1
1
1
1
1
1
1
1
1
1
1
1
1
1
1
1
1
1
1
1
1
1
1
1
1
1
1
1
1
1
1
1
1
1
1
1
1
1
1
1
1
1
1
1
1
1
1
1
1
1
1
1
1
1
1
1
1
1
1
1
1
1
1
1
1
1
1
1
1
1
1
1
1
1
1
1
1
1
1
1
1
1
1
1
1
1
1
1
1
1
1
1
1
1
1
1
1
1
1
1
1
1
1
1
1
1
1
1
1
1
1
1
1
1
1
1
1
1
1
1
1
1
1
1
1
1
1
1
1
1
1
1
1
1
1
1
1
1
1
1
1
1
1
1
1
1
1
1
1
1
1
1
1
1
1
1
1
1
1
1
1
1
1
1
1
1
1
1
1
1
1
1
1
1
1
1
1
1
1
1
1
1
1
1
1
1
1
1
1
1
1
1
1
1
1
1
1
1
1
1
1
1
1
1
1
1
1
1
1
1
1
1
1
1
1
1
1
1
1
1
1
1
1
1
1
1
1
1
1
1
1
1
1
1
1
1
1
1
1
1
1
1
1
1
1
1
1
1
1
1
1
1
1
1
1
1
1
1
1
1
1
1
1
1
1
1
1
1
1
1
1
1
1
1
1
1
1
1
1
1
1
1
1
1
1
1
1
1
1
1
1
1
1
1
1
1
1
1
1
1
1
1
1
1
1
1
1
1
1
1
1
1
1
1
1
1
1
1
1
1
1
1
1
1
1
1
1
1
1
1
1
1
1
1
1
1
1
1
1
1
1
1
1
1
1
1
1
1
1
1
1
1
1
1
1
1
1
1
1
1
1
1
1
1
1
1
1
1
1
1
1
1
1
1
1
1
1
1
1
1
1
1
1
1
1
1
1
1
1
1
1
1
1
1
1
1
1
1
1
1
1
1
1
1
1
1
1
1
1
1
1
1
1
1
1
1
1
1
1
1
1
1
1
1
1
1
1
1
1
1
1
1
1
1
1
1
1
1
1
1
1
1
1
1
1
1
1
1
1
1
1
1
1
1
1
1
1
1
1
1
1
1
1
1
1
1
1
1
1
1
1
1
1
1
1
1
1
1
1
1
1
1
1
1
1
1
1
1
1
1
1
1
1
1
1
1
1
1
1
1
1
1
1
1
1
1
1
1
1
1
1
1
1
1
1
1
1
1
1
1
1
1
1
1
1
1
1
1
1
1
1
1
1
1
1
1
1
1
1
1
1
1
1
1
1
1
1
1
1
1
1
1
1
1
1
1
1
1
1
1
1
1
1
1
1
1
1
1
1
1
1
1
1
1
1
1
1
1
1
1
1
1
1
1
1
1
1
1
1
1
1
1
1
1
1
1
1
1
1
1
1
1
1
1
1
1
1
1
1
1
1
1
1
1
1
1
1
1
1
1
1
1
1
1
1
1
1
1
1
1
1
1
1
1
1
1
1
1
1
1
1
1
1
1
1
1
1
1
1
1
1
1
1
1
1
1
1
1
1
1
1
1
1
1
1
1
1
1
1
1
1
1
1
1
1
1
1
1
1
1
1
1
1
1
1
1
1
1
1
1
1
1
1
1
1
1
1
1
1
1
1
1
1
1
1
1
1
1
1
1
1
1
1
1
1
1
1
1
1
1
1
1
1
1
1
1
1
1
1
1
1
1
1
1
1
1
1
1
1
1
1
1
1
1
1
1
1
1
1
1
1
1
1
1
1
1
1
1
1
1
1
1
1
1
1
1
1
1
1
1
1
1
1
1
1
1
1
1
1
1
1
1
1
1
1
1
1
1
1
1
1
1
1
1
1
1
1
1
1
1
1
1
1
1
1
1
1
1
1
1
1
1
1
1
1
1
1
1
1
1
1
1
1
1
1
1
1
1
1
1
1
1
1
1
1
1
1
1
1
1
1
1
1
1
1
1
1
1
1
1
1
1
1
1
1
1
1
1
1
1
1
1
1
1
1
1
1
1
1
1
1
1
1
1
1
1
1
1
1
1
1
1
1
1
1
1
1
1
1
1
1
1
1
1
1
1
1
1
1
1
1
1
1
1
1
1
1
1
1
1
1
1
1
1
1
1
1
1
1
1
1
1
1
1
1
1
1
1
1
1
1
1
1
1
1
1
1
1
1
1
1
1
1
1
1
1
1
1
1
1
1
1
1
1
1
1
1
1
1
1
1
1
1
1
1
1
1
1
1
1
1
1
1
1
1
1
1
1
1
1
1
1
1
1
1
1
1
1
1
1
1
1
1
1
1
1
1
1
1
1
1
1
1
1
1
1
1
1
1
1
1
1
1
1
1
1
1
1
1
1
1
1
1
1
1
1
1
1
1
1
1
1
1
1
1
1
1
1
1
1
1
1
1
1
1
1
1
1
1
1
1
1
1
1
1
1
1
1
1
1
1
1
1
1
1
1
1
1
1
1
1
1
1
1
1
1
1
1
1
1
1
1
1
1
1
1
1
1
1
1
1
1
1
1
1
1
1
1
1
1
1
1
1
1
1
1
1
1
1
1
1
1
1
1
1
1
1
1
1
1
1
1
1
1
1
1
1
1
1
1
1
1
1
1
1
1
1
1
1
1
1
1
1
1
1
1
1
1
1
1
1
1
1
1
1
1
1
1
1
1
1
1
1
1
1
1
1
1
1
1
1
1
1
1
1
1
1
1
1
1
1
1
1
1
1
1
1
1
1
1
1
1
1
1
1
1
1
1
1
1
1
1
1
1
1
1
1
1
1
1
1
1
1
1
1
1
1
1
1
1
1
1
1
1
1
1
1
1
1
1
1
1
1
1
1
1
1
1
1
1
1
1
1
1
1
1
1
1
1
1
1
1
1
1
1
1
1
1
1
1
1
1
1
1
1
1
1
1
1
1
1
1
1
1
1
1
1
1
1
1
1
1
1
1
1
1
1
1
1
1
1
1
1
1
1
1
1
1
1
1
1
1
1
1
1
1
1
1
1
1
1
1
1
1
1
1
1
1
1
1
1
1
1
1
1
1
1
1
1
1
1
1
1
1
1
1
1
1
1
1
1
1
1
1
1
1
1
1
1
1
1
1
1
1
1
1
1
1
1
1
1
1
1
1
1
1
1
1
1
1
1
1
1
1
1
1
1
1
1
1
1
1
1
1
1
1
1
1
1
1
1
1
1
1
1
1
1
1
1
1
1
1
1
1
1
1
1
1
1
1
1
1
1
1
1
1
1
1
1
1
1
1
1
1
1
1
1
1
1
1
1
1
1
1
1
1
1
1
1
1
1
1
1
1
1
1
1
1
1
1
1
1
1
1
1
1
1
1
1
1
1
1
1
1
1
1
1
1
1
1
1
1
1
1
1
1
1
1
1
1
1
1
1
1
1
1
1
1
1
1
1
1
1
1
1
1
1
1
1
1
1
1
1
1
1
1
1
1
1
1
1
1
1
1
1
1
1
1
1
1
1
1
1
1
1
1
1
1
1
1
1
1
1
1
1
1
1
1
1
1
1
1
1
1
1
1
1
1
1
1
1
1
1
1
1
1
1
1
1
1
1
1
1
1
1
1
1
1
1
1
1
1
1
1
1
1
1
1
1
1
1
1
1
1
1
1
1
1
1
1
1
1
1
1
1
1
1
1
1
1
1
1
1
1
1
1
1
1
1
1
1
1
1
1
1
1
1
1
1
1
1
1
1
1
1
1
1
1
1
1
1
1
1
1
1
1
1
1
1
1
1
1
1
1
1
1
1
1
1
1
1
1
1
1
1
1
1
1
1
1
1
1
1
1
1
1
1
1
1
1
1
1
1
1
1
1
1
1
1
1
1
1
1
1
1
1
1
1
1
1
1
1
1
1
1
1
1
1
1
1
1
1
1
1
1
1
1
1
1
1
1
1
1
1
1
1
1
1
1
1
1
1
1
1
1
1
1
1
1
1
1
1
1
1
1
1
1
1
1
1
1
1
1
1
1
1
1
1
1
1
1
1
1
1
1
1
1
1
1
1
1
1
1
1
1
1
1
1
1
1
1
1
1
1
1
1
1
1
1
1
1
1
1
1
1
1
1
1
1
1
1
1
1
1
1
1
1
1
1
1
1
1
1
1
1
1
1
1
1
1
1
1
1
1
1
1
1
1
1
1
1
1
1
1
1
1
1
1
1
1
1
1
1
1
1
1
1
1
1
1
1
1
1
1
1
1
1
1
1
1
1
1
1
1
1
1
1
1
1
1
1
1
1
1
1
1
1
1
1
1
1
1
1
1
1
1
1
1
1
1
1
1
1
1
1
1
1
1
1
1
1
1
1
1
1
1
1
1
1
1
1
1
1
1
1
1
1
1
1
1
1
1
1
1
1
1
1
1
1
1
1
1
1
1
1
1
1
1
1
1
1
1
1
1
1
1
1
1
1
1
1
1
1
1
1
1
1
1
1
1
1
1
1
1
1
1
1
1
1
1
1
1
1
1
1
1
1
1
1
1
1
1
1
1
1
1
1
1
1
1
1
1
1
1
1
1
1
1
1
1
1
1
1
1
1
1
1
1
1
1
1
1
1
1
1
1
1
1
1
1
1
1
1
1
1
1
1
1
1
1
1
1
1
1
1
1
1
1
1
1
1
1
1
1
1
1
1
1
1
1
1
1
1
1
1
1
1
1
1
1
1
1
1
1
1
1
1
1
1
1
1
1
1
1
1
1
1
1
1
1
1
1
1
1
1
1
1
1
1
1
1
1
1
1
1
1
1
1
1
1
1
1
1
1
1
1
1
1
1
1
1
1
1
1
1
1
1
1
1
1
1
1
1
1
1
1
1
1
1
1
1
1
1
1
1
1
1
1
1
1
1
1
1
1
1
1
1
1
1
1
1
1
1
1
1
1
1
1
1
1
1
1
1
1
1
1
1
1
1
1
1
1
1
1
1
1
1
1
1
1
1
1
1
1
1
1
1
1
1
1
1
1
1
1
1
1
1
1
1
1
1
1
1
1
1
1
1
1
1
1
1
1
1
1
1
1
1
1
1
1
1
1
1

SCALARS density double 1
LOOKUP_TABLE default
0.99995
0.999938
0.999945
0.999961
0.999945
0.999933
0.999965
0.999959
0.999923
0.999951
0.999977
0.999931
0.999928
0.999984
0.999956
0.999906
0.999968
0.999993
0.999901
0.999921
1.00002
0.999946
0.999873
0.999986
1.00001
0.999886
0.999919
1.00003
0.999948
0.999882
0.999982
0.999996
0.999903
0.999932
0.999994
0.99994
0.999913
0.999972
0.999968
0.99992
0.999948
0.999977
0.999939
0.999933
0.999966
0.999955
0.999937
0.999955
0.999961
0.99995
0.999936
0.999941
0.999957
0.999942
0.999933
0.999963
0.999959
0.999928
0.999953
0.99997
0.999937
0.999938
0.99996
0.999955
0.999944
0.999942
0.999951
0.999966
0.999944
0.999931
0.999969
0.999963
0.999921
0.999955
0.999975
0.999928
0.999936
0.999975
0.999944
0.999929
0.999962
0.999959
0.999937
0.999944
0.999957
0.99996
0.999944
0.999937
0.999964
0.999963
0.999928
0.999946
0.999973
0.99994
0.999936
0.999966
0.999956
0.99994
0.999956
0.999961
0.999942
0.999954
0.999942
0.999933
0.999958
0.999955
0.999929
0.999949
0.99997
0.999937
0.99993
0.999976
0.999965
0.999909
0.999951
0.999998
0.999922
0.999907
0.999996
0.999969
0.999895
0.999957
1
0.999923
0.999912
0.99999
0.999971
0.999899
0.999946
1
0.999928
0.999906
0.99999
0.999974
0.999902
0.999948
0.999988
0.999934
0.999922
0.999968
0.999962
0.999928
0.999949
0.999971
0.999944
0.999941
0.999966
0.999958
0.999944
0.999957
0.999955
0.999936
0.999929
0.999953
0.999946
0.999928
0.999953
0.999951
0.999938
0.999957
0.999946
0.999938
0.999965
0.999952
0.999929
0.999954
0.999962
0.999938
0.999946
0.999957
0.999946
0.999945
0.999952
0.99995
0.999949
0.999949
0.99995
0.999948
0.999952
0.999952
0.999945
0.999952
0.999956
0.99994
0.999947
0.999964
0.999946
0.999939
0.999959
0.99995
0.999944
0.999962
0.999945
0.999946
0.999971
0.999953
0.999944
0.999969
0.999962
0.999943
0.999933
0.999921
0.999943
0.999944
0.999918
0.999935
0.999959
0.999938
0.999921
0.999959
0.999978
0.999918
0.999922
0.999994
0.999952
0.999905
0.999971
0.999977
0.999917
0.99994
0.999981
0.999942
0.999922
0.999963
0.999967
0.999928
0.99994
0.999977
0.999952
0.999919
0.999962
0.999977
0.999922
0.999932
0.99999
0.999945
0.99991
0.999975
0.999977
0.999924
0.99994
0.999976
0.999962
0.999939
0.999962
0.999981
0.999954
0.999953
0.999976
0.999965
0.999906
0.999942
0.999927
0.999908
0.999942
0.999928
0.999909
0.999958
0.999946
0.999909
0.999955
0.999969
0.999934
0.999936
0.99996
0.999955
0.999946
0.999945
0.999952
0.999961
0.999941
0.99994
0.999966
0.999948
0.999935
0.999963
0.999952
0.999931
0.999957
0.999959
0.999937
0.999945
0.999955
0.999951
0.999941
0.999942
0.999962
0.999958
0.999931
0.999947
0.999984
0.99995
0.999943
0.999987
0.999967
0.999954
0.999989
0.999968
0.999953
0.99999
0.999917
0.999926
0.999893
0.999893
0.999927
0.999921
0.999887
0.999903
0.999966
0.999927
0.999892
0.999968
0.999965
0.999912
0.999954
0.999973
0.999932
0.99993
0.999971
0.99996
0.999918
0.999952
0.999986
0.999932
0.999916
0.999985
0.999963
0.99991
0.999951
0.99998
0.999932
0.99993
0.999972
0.999961
0.999924
0.999947
0.99998
0.999931
0.999932
0.999999
0.999965
0.999936
0.999988
1
0.999975
0.999967
0.999995
1
0.999967
0.999974
0.99989
0.999838
0.999882
0.999882
0.999829
0.999887
0.999912
0.999855
0.999873
0.999928
0.999932
0.999901
0.999927
0.999968
0.999934
0.999924
0.999959
0.999963
0.999924
0.999939
0.999976
0.99994
0.999923
0.999965
0.999969
0.999926
0.999937
0.999975
0.999954
0.999922
0.99996
0.999973
0.999931
0.999937
0.999975
0.999961
0.999926
0.99997
0.999992
0.999957
0.999967
1.00002
1.00003
0.999975
1
1.00005
0.999999
1
1.00005
0.999995
0.99981
0.999772
0.999795
0.999829
0.99979
0.999767
0.999835
0.999853
0.999799
0.999862
0.999898
0.999867
0.99991
0.999941
0.999928
0.999919
0.999957
0.999972
0.999923
0.999936
0.999986
0.99995
0.999911
0.999963
0.99998
0.999917
0.999935
0.999986
0.999946
0.999913
0.99996
0.999972
0.999923
0.999941
0.999975
0.99996
0.999953
0.999983
1.00001
0.999987
1.00002
1.00007
1.00002
1.00004
1.00009
1.00007
1.00004
1.00007
1.00009
1.00006
0.999687
0.999724
0.999632
0.999645
0.999721
0.999685
0.999651
0.999722
0.999771
0.999738
0.999775
0.999867
0.999848
0.999851
0.999925
0.999946
0.999907
0.999919
0.999989
0.999947
0.999907
0.999962
0.999977
0.999929
0.99992
0.999979
0.999963
0.999917
0.99994
0.999988
0.999944
0.999907
0.99998
0.99998
0.99994
0.999968
1.00003
1.00003
1
1.00009
1.00012
1.00008
1.00012
1.00018
1.00015
1.00011
1.00019
1.0002
1.00011
1.00015
0.999477
0.999522
0.99948
0.999406
0.999442
0.99951
0.999464
0.999514
0.999572
0.999579
0.99964
0.999698
0.999754
0.999778
0.999829
0.999909
0.999885
0.999902
0.999946
0.999944
0.999924
0.999943
0.999966
0.999939
0.999945
0.999947
0.999961
0.999932
0.999947
0.999967
0.999954
0.999946
0.999979
1
0.999976
1.00004
1.00008
1.0001
1.00015
1.00019
1.00023
1.00023
1.00028
1.00031
1.00027
1.00033
1.00035
1.00029
1.00026
1.00029
0.999266
0.999117
0.999142
0.999189
0.999105
0.999145
0.999212
0.999214
0.999238
0.999369
0.999396
0.999428
0.999556
0.999662
0.999714
0.999725
0.999865
0.999916
0.999865
0.999905
0.99999
0.999956
0.999884
0.999972
0.999997
0.999899
0.999919
1.00001
0.999935
0.999901
0.999982
1.00002
0.999961
1
1.00013
1.00012
1.00016
1.00025
1.00034
1.00035
1.00037
1.00048
1.00048
1.00046
1.00053
1.00055
1.00048
1.00052
1.00056
1.00044
0.998899
0.998746
0.998723
0.998835
0.998723
0.998752
0.998818
0.99884
0.998892
0.99896
0.999049
0.999155
0.999222
0.999366
0.99948
0.999604
0.999677
0.999772
0.999867
0.999873
0.999898
0.999936
0.99995
0.999934
0.999931
0.999965
0.999951
0.999936
0.999959
0.999982
0.999999
1
1.00009
1.00016
1.0002
1.00031
1.00038
1.00048
1.00051
1.00059
1.00065
1.00067
1.00071
1.00073
1.00078
1.00078
1.00072
1.0008
1.00077
1.00069
0.998352
0.998463
0.998383
0.998342
0.998339
0.998433
0.998377
0.998453
0.998523
0.998535
0.998588
0.998759
0.998886
0.998899
0.99912
0.999357
0.999401
0.999527
0.99974
0.999836
0.999781
0.999884
1
0.999884
0.999892
0.999994
1
0.999888
0.999991
1.00009
1.00002
1.0001
1.00027
1.00036
1.00037
1.00055
1.00072
1.00069
1.00077
1.00089
1.00091
1.0009
1.00096
1.00102
1.00097
1.00103
1.00106
1.00101
1.00094
1.00105
0.998018
0.998145
0.998035
0.998075
0.998158
0.998192
0.99814
0.998151
0.998202
0.99828
0.998272
0.998307
0.998437
0.998582
0.998677
0.998821
0.999148
0.999277
0.999418
0.999615
0.999781
0.999818
0.99982
0.999971
0.999948
0.999929
0.999908
1.00005
1.00003
1.00005
1.0002
1.00034
1.00043
1.00051
1.00077
1.00084
1.00088
1.00099
1.00106
1.00107
1.00106
1.00113
1.00117
1.00116
1.00115
1.00117
1.00123
1.00125
1.0012
1.00126
0.997841
0.997893
0.997916
0.998149
0.99807
0.998022
0.998186
0.998186
0.998067
0.998123
0.998194
0.998087
0.998093
0.998283
0.998285
0.998394
0.998619
0.99893
0.999024
0.999285
0.999586
0.999655
0.999745
0.999865
0.999987
0.999879
0.999996
1.00009
1.00016
1.00019
1.00043
1.00063
1.00065
1.00089
1.00103
1.00109
1.00106
1.0012
1.00121
1.00113
1.0012
1.00126
1.00119
1.00119
1.00135
1.0013
1.00123
1.00139
1.00144
1.00141
0.997703
0.997889
0.998007
0.998101
0.998082
0.998122
0.998237
0.998217
0.998223
0.998177
0.998176
0.998187
0.998093
0.997968
0.9981
0.998124
0.998186
0.998348
0.998708
0.998917
0.999086
0.999436
0.999673
0.999719
0.999807
1.00004
1.00009
1.00012
1.0003
1.0006
1.00067
1.0008
1.00109
1.00117
1.00118
1.0012
1.00133
1.00123
1.00118
1.00125
1.00128
1.00125
1.00131
1.0013
1.00139
1.00141
1.00142
1.00144
1.0015
1.00162
0.99778
0.998067
0.998017
0.997897
0.998116
0.998256
0.998157
0.998131
0.998402
0.998357
0.998228
0.998304
0.99829
0.998132
0.998023
0.998063
0.997989
0.998005
0.998276
0.998489
0.998724
0.999054
0.999368
0.999609
0.999706
1.00007
1.00015
1.00032
1.00059
1.0008
1.00097
1.00109
1.0013
1.0013
1.00124
1.00132
1.00126
1.0012
1.00125
1.00136
1.00129
1.00128
1.00151
1.00148
1.00141
1.00149
1.00168
1.00156
1.00149
1.00168
0.997987
0.997983
0.997893
0.997962
0.997973
0.997944
0.998033
0.998124
0.998145
0.998255
0.998354
0.998359
0.99835
0.998428
0.998213
0.998044
0.998023
0.998026
0.997811
0.998075
0.998425
0.998596
0.99893
0.999308
0.999838
0.999841
1.00034
1.00065
1.00088
1.00099
1.00124
1.00148
1.00126
1.00132
1.00139
1.0013
1.00118
1.00133
1.00138
1.00136
1.00148
1.00157
1.00156
1.00159
1.00171
1.00164
1.00164
1.00172
1.00168
1.00163
0.998098
0.99789
0.997853
0.998037
0.997875
0.997718
0.997943
0.997994
0.997861
0.997933
0.998281
0.998252
0.998243
0.998427
0.998508
0.998245
0.998202
0.998004
0.997949
0.997826
0.99799
0.998277
0.998541
0.999122
0.999482
1.00005
1.00036
1.00088
1.00107
1.00132
1.00146
1.00137
1.00142
1.00132
1.00136
1.00123
1.00135
1.00152
1.00151
1.00148
1.00174
1.00175
1.00165
1.00165
1.00186
1.00172
1.00163
1.00176
1.0018
1.00167
0.998026
0.998251
0.998076
0.997972
0.99804
0.998059
0.99787
0.997797
0.997971
0.997878
0.997825
0.998043
0.998217
0.998231
0.998376
0.998601
0.99831
0.998209
0.998153
0.997996
0.997745
0.998008
0.99846
0.99872
0.999281
1.00004
1.0006
1.0008
1.00127
1.00152
1.00137
1.00132
1.00139
1.0014
1.0012
1.00144
1.00158
1.00153
1.00164
1.00182
1.00173
1.00161
1.00181
1.00174
1.0016
1.00163
1.00178
1.00163
1.00155
1.0018
0.998102
0.998289
0.998132
0.997993
0.998137
0.998169
0.997991
0.99784
0.998032
0.99789
0.997669
0.997814
0.998011
0.997991
0.998089
0.998358
0.998543
0.998374
0.998263
0.998117
0.998041
0.997937
0.998177
0.998636
0.999284
0.999841
1.00049
1.00101
1.00128
1.00135
1.0014
1.00141
1.00138
1.0013
1.0015
1.00168
1.00171
1.00167
1.0018
1.00187
1.00172
1.00163
1.00181
1.00171
1.00164
1.00165
1.00181
1.00168
1.0016
1.00174
0.9982
0.997851
0.997944
0.998152
0.998022
0.99778
0.998163
0.998068
0.997897
0.997861
0.998061
0.997767
0.997644
0.997883
0.998038
0.997974
0.998298
0.998583
0.998385
0.998331
0.998404
0.998254
0.998164
0.998744
0.999224
0.999721
1.00027
1.00096
1.0011
1.0011
1.00136
1.00141
1.00128
1.00153
1.00178
1.00165
1.00173
1.00192
1.00182
1.00157
1.00179
1.00181
1.00166
1.00161
1.00197
1.00174
1.00165
1.00183
1.00194
1.00161
0.997873
0.997756
0.99779
0.997848
0.997819
0.997737
0.997977
0.998031
0.997974
0.997961
0.99805
0.998001
0.997724
0.997803
0.997832
0.997879
0.997955
0.998313
0.998534
0.998612
0.998516
0.998676
0.99882
0.998736
0.999206
0.999657
1.00024
1.00038
1.00074
1.00114
1.00117
1.0013
1.00152
1.00176
1.00175
1.00176
1.00181
1.00183
1.00165
1.00167
1.00175
1.00172
1.00172
1.00174
1.00189
1.0018
1.00182
1.00182
1.00188
1.00183
0.997491
0.997874
0.997796
0.997396
0.997792
0.997957
0.99769
0.997657
0.998086
0.998019
0.997809
0.998011
0.998151
0.997756
0.997633
0.997878
0.997924
0.997791
0.998435
0.998689
0.99883
0.999006
0.999245
0.999321
0.999187
0.999725
0.999758
1.00004
1.00051
1.00087
1.0011
1.00133
1.00187
1.00173
1.0017
1.00194
1.00187
1.00154
1.00171
1.00192
1.00172
1.00164
1.00202
1.00194
1.00169
1.00181
1.00215
1.00176
1.00173
1.00204
0.997619
0.997593
0.997754
0.997688
0.997835
0.99766
0.997788
0.997694
0.997743
0.997833
0.997944
0.997893
0.998034
0.998064
0.997892
0.997784
0.997833
0.998033
0.998048
0.998669
0.999187
0.999461
0.999554
0.999704
0.999793
0.999306
0.999507
0.999837
1.00011
1.00044
1.001
1.00159
1.00154
1.00172
1.00184
1.00175
1.00162
1.00173
1.00185
1.00176
1.00185
1.00194
1.00192
1.00182
1.00201
1.00183
1.00191
1.00187
1.00201
1.00186
0.997728
0.997213
0.997601
0.997873
0.997671
0.997253
0.997842
0.997839
0.997409
0.997548
0.998007
0.997871
0.997643
0.998096
0.998166
0.997769
0.997777
0.998064
0.998217
0.998385
0.99925
0.999751
0.999951
1.00011
0.999854
0.999542
0.999289
0.999523
0.999773
1.0003
1.00111
1.00131
1.00148
1.00179
1.00189
1.00157
1.00166
1.00207
1.00182
1.00168
1.00207
1.00216
1.0018
1.00182
1.00233
1.00198
1.00182
1.00204
1.00234
1.00185
0.997443
0.997656
0.997818
0.997468
0.997756
0.997785
0.997758
0.997681
0.997931
0.997777
0.997638
0.997851
0.997972
0.997814
0.998011
0.998201
0.998044
0.998
0.998311
0.998825
0.999069
0.999852
1.00041
1.00019
0.999903
0.999743
0.999464
0.999125
0.999604
1.00034
1.00059
1.00111
1.00156
1.00162
1.00151
1.00174
1.00194
1.00174
1.00183
1.00206
1.00191
1.00173
1.00204
1.00196
1.00186
1.00192
1.00224
1.00186
1.00198
1.0022
0.997605
0.998074
0.997928
0.997303
0.99787
0.998077
0.997824
0.997539
0.998074
0.998003
0.997488
0.997657
0.997987
0.997832
0.997668
0.998214
0.998367
0.998184
0.998528
0.999076
0.999422
0.999759
1.00028
1.00035
1.00014
0.999766
0.999411
0.999322
0.999618
0.999929
1.00031
1.00093
1.00139
1.00132
1.00154
1.00203
1.00188
1.00176
1.00206
1.00221
1.00181
1.00179
1.00223
1.00198
1.00179
1.00193
1.00238
1.00187
1.00177
1.00213
0.998152
0.997306
0.997625
0.997877
0.997689
0.997276
0.997798
0.997731
0.997307
0.997648
0.997952
0.997617
0.997431
0.99796
0.99799
0.997746
0.998296
0.998776
0.998865
0.999036
0.99969
0.999995
0.999914
1.0003
1.00025
0.999804
0.999566
0.999738
0.999509
0.999623
1.00033
1.00068
1.00084
1.00137
1.00195
1.00172
1.00174
1.00227
1.00213
1.00181
1.00216
1.00247
1.00204
1.00201
1.00256
1.00214
1.00194
1.00223
1.00255
1.00174
0.997881
0.997283
0.997736
0.997873
0.997639
0.997221
0.997686
0.997818
0.997585
0.997577
0.998027
0.997968
0.997629
0.997823
0.998099
0.998099
0.998239
0.998969
0.999386
0.99958
0.9998
1.00003
1.00001
0.999876
1.00004
1.00003
1.00006
0.999715
0.999494
0.99967
0.999904
1.00017
1.00065
1.0014
1.00157
1.00164
1.00194
1.00214
1.00184
1.00183
1.0022
1.00211
1.00199
1.00211
1.00249
1.00217
1.00208
1.00211
1.00249
1.00212
0.997208
0.998033
0.997888
0.996841
0.997693
0.998102
0.997384
0.9972
0.998067
0.997843
0.997148
0.997769
0.998085
0.997526
0.99747
0.998315
0.998517
0.998557
0.999601
1.00011
0.999918
0.999746
0.999928
0.999859
0.999725
1.00031
1.00016
0.999859
0.999918
0.99972
0.999501
0.999953
1.00098
1.00114
1.00135
1.00222
1.00227
1.00178
1.00207
1.00265
1.00198
1.00178
1.0026
1.00239
1.00175
1.00218
1.00297
1.00199
1.0019
1.00273
0.997584
0.997617
0.997495
0.997277
0.997684
0.997674
0.997544
0.997368
0.997567
0.997686
0.997341
0.997327
0.997851
0.997853
0.997739
0.9981
0.998794
0.999266
0.999558
1.00022
1.00027
0.999988
0.999672
0.999598
0.999958
1.00003
1.00034
1.00029
0.999901
0.999493
0.999424
1.00004
1.00034
1.00081
1.00158
1.00197
1.0019
1.00198
1.00243
1.00237
1.00212
1.00233
1.00243
1.00224
1.00227
1.00218
1.00245
1.0024
1.00236
1.00222
0.997894
0.996555
0.997134
0.998195
0.997455
0.9966
0.997877
0.998024
0.99695
0.997204
0.998104
0.997668
0.997115
0.998044
0.998345
0.998077
0.998612
0.99968
1.00002
0.999908
1.00038
1.00009
0.999515
0.999625
0.999871
1.00009
1.00032
1.00051
0.999965
0.999501
0.999829
0.999694
0.999964
1.001
1.00166
1.00144
1.00171
1.00262
1.00209
1.00172
1.00258
1.00283
1.00189
1.00207
1.00318
1.00237
1.00173
1.0027
1.00322
1.00199
0.997072
0.997245
0.997655
0.997114
0.997498
0.997455
0.997319
0.997453
0.997683
0.997454
0.997401
0.997855
0.997676
0.997413
0.998091
0.998568
0.998836
0.999311
1.00004
1.00024
0.999801
0.999878
0.99984
0.999622
0.999792
1.0001
1.00042
1.00027
1.00015
1.00018
0.999651
0.999674
1.00037
1.00088
1.00117
1.00166
1.0023
1.00208
1.00194
1.00249
1.00241
1.00211
1.00248
1.00264
1.00231
1.00241
1.00286
1.00218
1.00252
1.00287
0.996449
0.998191
0.99758
0.996199
0.997403
0.998067
0.996934
0.996616
0.998132
0.997794
0.996792
0.99751
0.998181
0.997588
0.997536
0.999013
0.99946
0.999405
1.00002
1.00037
1.00005
0.999766
0.99998
0.999889
0.999774
1.00018
1.00016
1.00012
1.00035
1.00005
0.999592
0.999792
1.00038
1.00033
1.00072
1.00214
1.00214
1.00165
1.00233
1.003
1.00212
1.00184
1.00318
1.00286
1.0019
1.00256
1.00354
1.00235
1.00182
1.00331
0.998046
0.996692
0.996939
0.997767
0.997207
0.996706
0.997712
0.997736
0.996883
0.997355
0.997834
0.997411
0.997232
0.998146
0.998488
0.998443
0.999466
1.00014
0.999985
0.999775
0.999909
0.999884
0.999671
0.999964
1.00014
0.999889
1.00003
1.00043
1.00031
1.00018
1.00023
1.00006
0.999794
1.00031
1.00131
1.00131
1.00158
1.00255
1.00251
1.00202
1.00256
1.0031
1.00212
1.00219
1.00332
1.00271
1.00213
1.00309
1.00334
1.00179
0.997894
0.996202
0.997142
0.998242
0.997245
0.996341
0.997816
0.998044
0.996783
0.996796
0.998136
0.997563
0.997022
0.998029
0.998959
0.998892
0.999146
1.00024
1.00011
0.999565
0.999677
0.999835
0.999869
1.00008
1.00013
0.999927
0.999983
1.00022
1.00029
1.00045
1.00059
1.00003
0.999754
1.00068
1.00094
1.00089
1.00177
1.00277
1.00229
1.00184
1.00307
1.00309
1.00194
1.00228
1.0035
1.00275
1.00204
1.00288
1.00364
1.00236
0.996035
0.998241
0.997678
0.995784
0.99723
0.99829
0.996639
0.996476
0.997902
0.997626
0.99644
0.997641
0.998131
0.997756
0.998211
0.999586
0.999873
0.999538
1.00006
1.00004
0.999546
0.999709
1.00015
1.00011
0.999967
1.00007
1
0.999909
1.00037
1.0007
1.00026
1.0001
1.00054
1.00018
1.00031
1.00164
1.00219
1.00176
1.00222
1.00347
1.00232
1.002
1.00353
1.00337
1.00168
1.00284
1.00433
1.00234
1.0019
1.0042
0.997095
0.997985
0.997279
0.996421
0.997488
0.997867
0.997042
0.996694
0.99773
0.997846
0.997057
0.99719
0.998146
0.998148
0.998441
0.99943
1.00005
1.00003
0.999828
0.999854
0.999727
0.999728
0.999936
1.00005
1.0001
1.00004
0.999961
1.00007
1.00044
1.00055
1.00042
1.00046
1.00025
1.00006
1.00055
1.00153
1.00175
1.00177
1.00271
1.0029
1.00212
1.00234
1.00328
1.00295
1.00239
1.00268
1.00341
1.00296
1.00247
1.0029
0.998653
0.99525
0.996226
0.999178
0.99683
0.995084
0.997889
0.99811
0.996047
0.996702
0.998298
0.997413
0.996536
0.998577
0.999329
0.99896
0.999653
1.00052
0.999933
0.999245
0.999809
0.999977
0.999703
0.999982
1.00019
0.999898
1.00005
1.00042
1.00026
1.00041
1.00103
1.00051
0.999827
1.0005
1.00121
1.00076
1.00132
1.0033
1.00259
1.00163
1.00325
1.00402
1.00197
1.00223
1.00499
1.0033
1.00108
1.0041
1.00487
1.00162
0.996521
0.996507
0.997478
0.997064
0.996962
0.996948
0.996965
0.997376
0.99719
0.997227
0.997493
0.997736
0.997915
0.998234
0.999205
0.999683
1.00005
1.00024
0.99995
0.999716
0.999772
0.999854
0.999815
0.999843
0.999933
1.00005
1.00023
1.0003
1.00029
1.00056
1.00076
1.00053
1.00024
1.00039
1.00062
1.00095
1.00184
1.00216
1.00222
1.00251
1.00285
1.00283
1.00268
1.0032
1.00301
1.00317
1.0035
1.00262
1.00354
1.0041
0.994741
0.99966
0.997632
0.994126
0.997206
0.999164
0.995904
0.995233
0.998459
0.997717
0.995864
0.997368
0.998798
0.998047
0.998098
1.00007
1.00045
0.99965
0.999793
1
0.99968
0.999653
0.999936
0.999858
0.999829
1.00019
1.00018
1.0001
1.00052
1.00071
1.00044
1.00068
1.00099
1.00011
1.00018
1.00205
1.0022
1.00129
1.00257
1.00419
1.00239
1.0016
1.00474
1.0043
1.00115
1.00325
1.00605
1.00266
1.00105
1.00573
0.998572
0.995786
0.996276
0.997786
0.996953
0.996247
0.997357
0.997679
0.996216
0.99705
0.997693
0.997708
0.997705
0.998616
0.999482
0.999672
1.00025
1.00045
0.999932
0.999661
0.999859
0.999847
0.999586
0.999719
0.999949
1.00002
1.00027
1.00058
1.00049
1.00045
1.0007
1.00073
1.00036
1.00041
1.00089
1.00101
1.00157
1.0024
1.00248
1.00237
1.00291
1.00381
1.00249
1.0028
1.00416
1.00336
1.0023
1.00448
1.00495
1.00145
0.998278
0.993313
0.99565
0.999875
0.996293
0.994116
0.998102
0.998206
0.995548
0.99611
0.99847
0.997701
0.996913
0.998796
0.999775
0.9995
1.00003
1.00075
1.00008
0.999524
0.999911
0.999767
0.999362
0.999721
1.00003
0.999899
1.00029
1.00077
1.00045
1.00037
1.00099
1.00068
1.00002
1.00075
1.0013
1.00077
1.00147
1.00342
1.00261
1.00152
1.00384
1.00466
1.00202
1.00217
1.00612
1.00408
1.00084
1.0051
1.00683
1.00262
0.993639
0.999363
0.998078
0.993728
0.997059
0.999072
0.995988
0.995694
0.997996
0.997892
0.996056
0.997425
0.998858
0.998491
0.998945
1.00036
1.00078
1.00001
0.999902
1.00005
0.999598
0.999268
0.999468
0.999653
0.999823
1.00012
1.00035
1.00053
1.00084
1.00079
1.00047
1.00067
1.00088
1.00036
1.0006
1.00182
1.00217
1.00151
1.0026
1.00398
1.00231
1.00207
1.00445
1.00444
1.00129
1.00355
1.00703
1.0022
1.00148
1.00806
0.995739
1.00012
0.996274
0.993097
0.996969
0.99851
0.995584
0.99543
0.998028
0.997302
0.996046
0.997344
0.998575
0.998397
0.999117
1.00067
1.00076
1.00016
1.00035
1.00036
0.999713
0.999398
0.999523
0.999539
0.999831
1.00033
1.0005
1.00051
1.00083
1.0007
1.0001
1.00029
1.00089
1.00044
1.00042
1.00191
1.00246
1.00175
1.0027
1.00419
1.00288
1.00196
1.00474
1.00487
1.00185
1.00349
1.00729
1.00411
1.00179
1.00551
1.00042
0.98904
0.994242
1.00175
0.996283
0.993105
0.997788
0.999224
0.995497
0.996108
0.998603
0.997888
0.99704
0.999035
1.00053
1.00006
1.00038
1.00096
1.00018
0.999271
0.999323
0.999303
0.99897
0.999324
0.999851
1.00012
1.00066
1.00111
1.00075
1.00067
1.00099
1.00053
1.00009
1.00103
1.00169
1.00089
1.00175
1.00359
1.00257
1.00134
1.00389
1.00504
1.00113
1.00234
1.00727
1.00431
0.999157
1.00718
1.01091
0.998735
0.994015
0.993479
0.99638
0.997745
0.995233
0.995554
0.997262
0.996906
0.996015
0.997032
0.997332
0.997182
0.997723
0.999156
0.999817
1.0003
1.00102
1.00116
1.00032
0.999818
0.999668
0.999233
0.999003
0.999549
1.00006
1.00033
1.00071
1.00113
1.00078
1.00031
1.00035
1.00027
0.99994
1.00069
1.00171
1.00173
1.00179
1.00303
1.00322
1.00259
1.00301
1.00454
1.00326
1.00273
1.00475
1.00563
1.00267
1.0045
1.00804
1.00857
0.992551
1.00721
0.996981
0.98999
0.997546
1.00008
0.995038
0.994579
0.998911
0.997811
0.995673
0.997533
0.999143
0.998277
0.998987
1.00117
1.00151
1.00072
1.00063
1.00016
0.998918
0.998486
0.998858
0.999045
0.999621
1.00066
1.00091
1.00097
1.00143
1.00095
0.999764
1.00008
1.00087
1.00026
1.00055
1.00288
1.00298
1.00111
1.00286
1.00508
1.0019
1.00092
1.00643
1.00561
0.998766
1.00457
1.01179
1.001
0.996324
1.02319

VECTORS velocity double
-1.87412e-07 -4.72404e-07 0
-6.64367e-07 3.77984e-08 0
2.63492e-06 1.68292e-06 0
-1.40196e-06 -5.36845e-07 0
1.47713e-06 -1.0247e-06 0
5.33516e-06 9.67102e-07 0
1.71463e-06 -1.74114e-07 0
-1.55292e-06 -1.43401e-06 0
4.87864e-06 -1.77801e-07 0
2.29719e-06 6.90255e-07 0
-1.32068e-06 -1.08913e-06 0
4.13595e-06 -2.15621e-07 0
6.51756e-06 6.07379e-07 0
7.22252e-07 -1.03812e-06 0
5.4183e-06 -1.23729e-06 0
1.0321e-05 2.73171e-06 0
3.12671e-06 -2.01717e-06 0
2.46657e-06 -3.98789e-06 0
1.17922e-05 2.37145e-06 0
7.1407e-06 1.90623e-06 0
2.46398e-06 -5.47725e-06 0
1.0932e-05 -2.61562e-07 0
1.01174e-05 3.50482e-06 0
4.22161e-06 -1.62242e-06 0
1.15562e-05 -3.11127e-06 0
1.19651e-05 3.13744e-06 0
4.38098e-06 6.86146e-07 0
9.33814e-06 -3.38273e-06 0
1.07728e-05 5.29419e-07 0
2.69743e-06 4.36634e-06 0
6.55904e-06 -2.08056e-06 0
1.08388e-05 -1.68106e-06 0
2.19139e-06 3.44398e-06 0
2.76275e-06 1.46976e-06 0
9.57706e-06 -2.15565e-06 0
4.63738e-06 1.36569e-06 0
4.33074e-07 8.09333e-07 0
6.35875e-06 -3.68304e-07 0
3.93093e-06 5.63212e-07 0
-1.59415e-06 1.2271e-06 0
2.63994e-06 -5.03408e-07 0
5.04805e-06 3.35051e-07 0
-1.59877e-06 1.65938e-06 0
1.67005e-06 3.61221e-07 0
5.76705e-06 -9.859e-07 0
1.20961e-06 1.04884e-06 0
-1.30813e-06 7.51204e-07 0
2.98976e-06 -1.50643e-06 0
-1.91519e-07 -1.92046e-08 0
-2.43523e-07 9.75397e-07 0
1.15784e-06 3.11133e-06 0
-1.22702e-06 1.16678e-06 0
-3.14483e-06 9.16662e-07 0
5.55999e-07 2.39431e-06 0
5.19865e-06 2.30203e-06 0
-4.8302e-07 9.03174e-08 0
2.12492e-06 1.84881e-06 0
7.41614e-06 1.9163e-07 0
3.30834e-06 -3.52373e-06 0
1.68168e-06 4.12643e-06 0
7.22667e-06 2.46999e-08 0
4.38802e-06 -5.87437e-06 0
4.39834e-06 6.57144e-06 0
6.73381e-06 5.66434e-06 0
3.70645e-06 -1.13561e-05 0
5.37074e-06 3.89466e-06 0
1.17011e-05 1.25249e-05 0
5.73868e-06 -9.57357e-06 0
3.6189e-06 -7.09697e-06 0
1.40204e-05 1.4259e-05 0
1.37588e-05 -2.04544e-06 0
5.38439e-06 -9.64837e-06 0
1.19939e-05 6.67459e-06 0
1.7389e-05 1.87585e-06 0
9.20656e-06 -6.45899e-06 0
9.31356e-06 6.06218e-06 0
1.70994e-05 -1.43073e-06 0
1.16442e-05 -6.13768e-06 0
5.88622e-06 8.88655e-06 0
1.35685e-05 1.61629e-06 0
1.32941e-05 -1.31199e-05 0
4.23371e-06 6.97083e-06 0
6.58278e-06 8.48819e-06 0
1.13764e-05 -1.19561e-05 0
5.81427e-06 -3.15889e-06 0
5.02726e-06 1.06644e-05 0
7.29683e-06 -5.70915e-06 0
4.71411e-06 -6.04236e-06 0
5.51962e-06 5.82019e-06 0
7.91474e-06 -2.80873e-07 0
1.72821e-06 -4.01925e-06 0
3.56405e-06 3.48119e-06 0
7.58334e-06 -4.30822e-07 0
1.81471e-06 -1.79861e-06 0
-7.74921e-07 -2.86351e-08 0
5.40206e-06 -2.22822e-06 0
7.8529e-07 -2.64004e-06 0
-3.00547e-06 -4.05189e-07 0
-1.49011e-06 -1.44277e-06 0
1.21812e-06 -2.54145e-06 0
8.50997e-07 7.46298e-06 0
-1.48769e-06 1.21285e-06 0
-8.19008e-07 3.65079e-06 0
7.9582e-07 6.45662e-06 0
-3.66349e-06 9.0023e-07 0
-4.10848e-06 1.87317e-06 0
2.33458e-06 4.80504e-06 0
-3.14212e-06 1.09951e-06 0
-5.34311e-06 -3.15707e-06 0
1.87887e-06 3.9698e-06 0
3.57313e-06 4.56003e-06 0
-4.96707e-06 -5.2453e-06 0
-2.02177e-06 -3.60547e-06 0
6.25266e-06 1.19256e-05 0
-1.636e-06 -1.07015e-06 0
-1.13051e-05 -1.2623e-05 0
1.13796e-07 9.26191e-06 0
1.49818e-06 9.82256e-06 0
-1.0474e-05 -1.18154e-05 0
-6.58309e-06 2.1823e-06 0
1.64565e-06 1.15106e-05 0
-5.43946e-06 -3.76797e-06 0
-6.33436e-06 -3.09246e-06 0
-7.43945e-07 6.12604e-06 0
-3.25376e-06 1.16939e-06 0
-3.38783e-06 -2.2425e-06 0
-7.28291e-07 -3.61883e-06 0
-5.61956e-06 2.72735e-06 0
-4.80721e-06 2.13803e-06 0
1.6967e-06 -9.11445e-06 0
-5.87488e-06 -1.52954e-06 0
-9.33974e-06 9.57614e-06 0
1.52182e-06 -8.2605e-06 0
6.77698e-08 -7.56929e-06 0
-1.04965e-05 1.08538e-05 0