# vtk DataFile Version 4.0
SiwiRVisFile
ASCII
DATASET STRUCTURED_POINTS
DIMENSIONS 25 25 1
ORIGIN 0 0 0
SPACING 1 1 1
POINT_DATA 625

SCALARS flags double 1
LOOKUP_TABLE default
1
1
1
1
1
1
1
1
1
1
1
1
1
1
1
1
1
1
1
1
1
1
1
1
1
1
1
1
1
1
1
1
1
1
1
1
1
1
1
1
1
1
1
1
1
1
1
1
1
1
1
1
1
1
1
1
1
1
1
1
1
1
1
1
1
1
1
1
1
1
1
1
1
1
1
1
1
1
1
1
1
1
1
1
1
1
1
1
1
1
1
1
1
1
1
1
1
1
1
1
1
1
1
1
1
1
1
1
1
1
1
1
1
1
1
1
1
1
1
1
1
1
1
1
1
1
1
1
1
1
1
1
1
1
1
1
1
1
1
1
1
1
1
1
1
1
1
1
1
1
1
1
1
1
1
1
1
1
1
1
1
1
1
1
1
1
1
1
1
1
1
1
1
1
1
1
1
1
1
1
1
1
1
1
1
1
1
1
1
1
1
1
1
1
1
1
1
1
1
1
1
1
1
1
1
1
1
1
1
1
1
1
1
1
1
1
1
1
1
1
1
1
1
1
1
1
1
1
1
1
1
1
1
1
1
1
1
1
1
1
1
1
1
1
1
1
1
1
1
1
1
1
1
1
1
1
1
1
1
1
1
1
1
1
1
1
1
1
1
1
1
1
1
1
1
1
1
1
1
1
1
1
1
1
1
1
1
1
1
1
1
1
1
1
1
1
1
1
1
1
1
1
1
1
1
1
1
1
1
1
1
1
1
1
1
1
1
1
1
1
1
1
1
1
1
1
1
1
1
1
1
1
1
1
1
1
1
1
1
1
1
1
1
1
1
1
1
1
1
1
1
1
1
1
1
1
1
1
1
1
1
1
1
1
1
1
1
1
1
1
1
1
1
1
1
1
1
1
1
1
1
1
1
1
1
1
1
1
1
1
1
1
1
1
1
1
1
1
1
1
1
1
1
1
1
1
1
1
1
1
1
1
1
1
1
1
1
1
1
1
1
1
1
1
1
1
1
1
1
1
1
1
1
1
1
1
1
1
1
1
1
1
1
1
1
1
1
1
1
1
1
1
1
1
1
1
1
1
1
1
1
1
1
1
1
1
1
1
1
1
1
1
1
1
1
1
1
1
1
1
1
1
1
1
1
1
1
1
1
1
1
1
1
1
1
1
1
1
1
1
1
1
1
1
1
1
1
1
1
1
1
1
1
1
1
1
1
1
1
1
1
1
1
1
1
1
1
1
1
1
1
1
1
1
1
1
1
1
1
1
1
1
1
1
1
1
1
1
1
1
1
1
1
1
1
1
1
1
1
1
1
1
1
1
1
1
1
1
1
1
1
1
1
1
1
1
1
1
1
1
1
1
1
1
1
1
1
1
1
1
1
1
1
1
1
1
1
1
1
1
1
1
1
1
1
1
1
1
1
1
1
1
1
1
1
1
1
1
1
1
1
1
1
1
1

SCALARS density double 1
LOOKUP_TABLE default
0.999669
0.999693
0.999824
0.999705
0.999621
0.999858
0.999875
0.999595
0.999742
1.00005
0.999758
0.999578
1.00001
0.999999
0.999552
0.999764
1.00011
0.999711
0.999553
1.00004
0.999954
0.99951
0.999833
1.00012
0.999655
0.999978
0.999433
0.999621
1.00004
0.999723
0.999517
0.99986
0.99994
0.999669
0.999727
0.99992
0.999847
0.999764
0.999804
0.99984
0.999864
0.99981
0.999716
0.999831
0.999937
0.999753
0.999666
0.999941
0.999944
0.999621
0.999658
0.999863
0.999698
0.999655
0.999848
0.999754
0.999635
0.999893
0.999885
0.999599
0.999834
1.00004
0.999671
0.99967
1.00008
0.999839
0.999524
0.999952
1.00005
0.999517
0.999717
1.00019
0.99973
0.999467
1.00007
0.999517
1.00004
0.999828
0.99941
0.999741
1.00003
0.999701
0.999558
0.99991
0.999959
0.999682
0.999724
0.99995
0.999897
0.999709
0.999768
0.999924
0.999855
0.999708
0.99978
0.99991
0.99986
0.999738
0.999791
0.999912
0.999945
0.999379
0.999648
0.999945
0.999685
0.999632
0.999923
0.999749
0.999639
0.999953
0.999854
0.999642
0.999939
0.999964
0.99962
0.999821
1.00005
0.999636
0.999619
1.00018
0.999866
0.99941
1
1.00023
0.999475
0.999702
0.999299
0.999637
1.00003
0.999764
0.999486
0.999798
1.00003
0.999671
0.999575
0.999963
1.00001
0.99969
0.999722
1.00002
0.999871
0.999614
0.999835
0.999979
0.999748
0.999749
0.999961
0.999872
0.999788
0.999909
0.999125
1.00012
0.999649
1
0.999831
0.999998
0.999458
0.999609
0.999995
0.999764
0.999756
0.999977
0.999806
0.999762
1.00001
0.999832
0.999629
1
1
1
0.999871
1.00035
0.999663
0.999458
1.00033
0.999568
0.999611
0.999327
1
0.999675
0.999854
0.999623
0.999397
0.999832
1.00011
0.999774
0.999665
1.00005
1.00004
0.999605
0.999773
1.00013
1
1
1
1.00001
0.99963
1.00004
1.00012
0.999656
0.999811
0.998425
0.999186
1
0.999418
0.999015
0.999985
0.999888
1
0.9999
1.00002
0.999831
0.999848
0.999918
0.999817
0.999977
0.999969
1
1
1
0.999925
0.999449
1.00023
1.00044
0.999464
0.998817
0.999469
0.999493
1
0.999609
0.999506
0.999323
0.999549
0.999668
0.999691
0.999946
1.00011
0.999748
0.999732
1.00021
0.999944
0.999527
1.00021
1.0004
0.999557
0.999988
1.00061
0.999692
0.999579
1.00055
0.99874
1.00021
0.999191
0.998013
0.999441
1.00019
0.999
0.999066
1.00015
0.999924
0.999579
0.99986
1.0001
0.999982
0.999905
0.999827
0.999948
1.00024
1.00005
0.999607
1.00021
1.0005
0.999737
0.999556
1.00048
0.999913
0.998427
0.998769
0.999934
0.999004
0.998768
0.999694
1
0.999637
0.999596
1
0.999847
1.00001
1.00008
0.999665
1
1.00045
0.999621
0.999671
1.00081
1.00002
0.999162
1.00064
1.00069
0.99903
0.999332
0.99803
0.999173
1.00019
0.998876
0.998221
0.999513
1.00009
0.998646
1
1.00024
1.00006
0.99973
0.99992
1.00013
1.00006
0.999914
0.999854
1.00013
1.00029
0.999942
0.999785
1.00022
1.00048
0.999831
0.998029
1.00057
0.99949
0.997609
0.999492
1.00031
0.998374
0.998759
0.999758
0.999956
0.999682
0.999992
1
0.999875
1.00022
0.999918
0.999543
1.00057
1.00041
0.998996
1.00027
1.00136
0.99914
0.99911
1.00162
0.999284
0.999835
0.998855
0.998488
0.99937
0.999644
0.99879
0.998751
0.999857
1.00002
0.999554
0.999816
1.00029
0.999992
0.999706
1.00005
1.00021
1.00001
0.999853
1.00016
1.00011
1.00008
1.00035
0.999885
0.999785
1.00048
0.996867
0.998737
1.00128
0.998431
0.997377
1.00045
1
0.999412
0.999314
1.0002
1.00002
0.999782
1.00013
0.999914
1
1.00037
0.999435
0.999698
1.00151
0.999736
0.998425
1.00147
1.00151
0.998009
0.998182
0.999044
0.999565
0.99888
0.998992
0.999108
0.998858
1
0.999708
0.999856
1.00009
1
0.999683
1.00007
1.00036
0.999726
0.999709
1.0003
1.00025
0.999556
1.00039
1.00076
0.999255
1.0001
1.00159
0.997598
1.00212
0.999315
0.996232
0.999955
1.00123
0.997236
1
1.00052
1.00019
0.999124
1.00014
1.0005
0.999661
0.999829
1.00027
0.999765
1.00016
1
0.99824
1.00064
1.0024
0.998599
0.998258
1.00273
1.00096
0.997576
0.998142
1.0006
0.99877
0.997952
0.999947
1
0.999856
1.00002
0.999892
0.999972
1.00019
0.99995
0.999608
1.00026
1.00023
0.999633
1
1.00154
0.999396
0.998559
1.00226
1.00117
0.997085
1.00009
0.995268
0.998918
1.00205
0.998197
0.997
1.00063
1
0.999224
0.999532
1.00088
0.999733
0.999303
1.0007
1.00038
0.999078
1
1
1
1.00172
0.999858
0.99778
1.00185
1.00258
0.997584
0.995198
1.0023
1.00014
0.995258
0.999438
1.00124
0.998014
0.998604
1.00064
1.00012
0.999925
1
0.999992
0.99971
1.00047
1.00016
1
1
1
1
1
1
1
0.998934
1.0069
0.99914
1.00242
0.997788
0.995781
0.999701
1.00066
0.998116
0.99921
1.00085
0.999914
0.999022
1.00036
1.00104
0.999002
0.999357
1.0015
1
1
1
1
1.0051
1.01105
1.00184
1.00162
1.00812
1.00253
0.990008
0.996865
1.00481
1
0.996603
1.00073
1.00068
0.998594
1.00031
1
0.999946
0.999913
1.00101
0.999188
0.998723
1.00237
0.997946
0.999516
1.0101
1.00602
0.995498
1.00605
1.0148
0.998699
0.993832
0.99607
1.00039
0.999406
0.995932
0.998155
0.999832
0.999239
1.00017
1.00217
1.00138
1.00695
1
1.00084
1.00132
0.998448
1
0.999767
1.00354
1.00651
1.00201
1.00101
1.00808
1.00742
1.00414
0.994119
1.00968
0.998842
0.992114
0.999844
1.00086
0.99726
0.998602
1.00144
1.00138
1.00317
1.00833
1.00226
0.995045
0.999775
1.00327
1.00115
1.00677
1.00591
0.995571
1.00285
1.01509
1.00076
0.993065
1.02433

VECTORS velocity double
-7.05536e-06 -2.96204e-06 0
-0.000160468 7.53048e-05 0
-0.000294016 -1.62006e-07 0
-0.000298458 -2.80814e-05 0
-0.00028893 1.62823e-05 0
-0.00048091 8.92015e-05 0
-0.000584499 -2.84123e-05 0
-0.000521937 -3.05988e-05 0
-0.000531295 4.2822e-05 0
-0.000641936 1.42371e-05 0
-0.000595445 -4.48731e-05 0
-0.000528844 -3.94165e-06 0
-0.000512199 2.3315e-06 0
-0.000523172 -7.83576e-06 0
-0.000495664 3.33768e-06 0
-0.000482713 -7.10863e-06 0
-0.000441766 -7.05647e-06 0
-0.000466201 2.33872e-05 0
-0.000501592 2.97469e-05 0
-0.00042493 -7.22507e-05 0
-0.000277368 -6.85538e-06 0
-0.000284632 2.45876e-05 0
-0.000233225 -2.50305e-05 0
-0.000109572 -5.31058e-05 0
-2.62798e-06 6.84151e-06 0
-0.000103898 0.00012672 0
-0.000440444 0.000339531 0
-0.000660766 7.52795e-05 0
-0.000828841 2.72491e-05 0
-0.00118229 0.000252824 0
-0.00142652 0.000216759 0
-0.00135784 -4.6324e-05 0
-0.00149892 4.92028e-05 0
-0.00174447 0.000147782 0
-0.00168693 -5.44503e-05 0
-0.0014733 -0.000135975 0
-0.00154768 2.27416e-05 0
-0.00153819 -6.89834e-05 0
-0.00127143 -0.000120674 0
-0.00119405 5.23379e-05 0
-0.00141861 4.60718e-05 0
-0.00140065 -7.42415e-05 0
-0.00121245 9.75624e-06 0
-0.00120117 7.01912e-05 0
-0.00127001 -0.000177409 0
-0.000995171 -0.000213355 0
-0.000619647 -9.13595e-05 0
-0.000447384 -0.000100371 0
-0.000329121 -0.000237372 0
-8.62968e-05 -9.81068e-05 0
-0.00013233 0.000438424 0
-0.000340514 0.000505102 0
-0.00073554 0.000478472 0
-0.0014369 0.000434838 0
-0.00168961 0.000446462 0
-0.00163788 0.000218977 0
-0.00192202 0.000201482 0
-0.00236592 0.000267312 0
-0.00229681 7.66393e-05 0
-0.00220351 -0.000104384 0
-0.00230054 -0.000162373 0
-0.00211594 -0.00013999 0
-0.00182116 -0.000201335 0
-0.00185462 -0.000185924 0
-0.00179541 1.61956e-05 0
-0.00159205 8.92712e-05 0
-0.00167036 -1.85811e-06 0
-0.00185668 -5.62486e-05 0
-0.00161269 -8.16137e-05 0
-0.00140104 -0.000175198 0
-0.00139413 -0.000470183 0
-0.00107576 -0.00054857 0
-0.000504195 -0.000330435 0
-0.000250808 -0.000329892 0
-8.8316e-05 -0.000329981 0
5.54875e-05 0.000534662 0
-0.000446485 0.000980589 0
-0.00138857 0.00118784 0
-0.00181317 0.000798817 0
-0.0016382 0.00036145 0
-0.00182262 0.000446396 0
-0.00234902 0.000626282 0
-0.00263219 0.000470758 0
-0.00265058 1.56081e-05 0
-0.00277266 -9.46954e-05 0
-0.00275667 -0.000246343 0
-0.00236166 -0.000467804 0
-0.00201391 -0.000352259 0
-0.00198984 -0.000219859 0
-0.00184232 -0.000147554 0
-0.00161606 2.24899e-05 0
-0.00169575 0.000183125 0
-0.00198721 -3.23204e-06 0
-0.00190132 -0.00029763 0
-0.00149534 -0.000396641 0
-0.00126527 -0.000551998 0
-0.00119369 -0.000895813 0
-0.000745148 -0.000881123 0
-0.000190659 -0.000613555 0
4.62829e-05 -0.000387244 0
-0.000156998 0.00065409 0
-0.00115113 0.00225865 0
-0.00174071 0.00150266 0
-0.00131762 0.000559242 0
-0.00128674 0.000435644 0
-0.00198494 0.00108207 0
-0.00241411 0.000892038 0
-0.00263369 0.000669397 0
-0.00310594 0.000324739 0
-0.00315998 -0.000243949 0
-0.00268729 -0.000591273 0
-0.00248857 -0.000698214 0
-0.00229468 -0.000640855 0
-0.00181168 -0.000472362 0
-0.00156659 -0.000236467 0
-0.00166707 -8.36025e-06 0
-0.00145319 0.000189149 0
-0.00117354 0.00010723 0
-0.00142401 -0.000224786 0
-0.0016403 -0.000807325 0
-0.00129512 -0.000746664 0
-0.00100189 -0.000961724 0
-0.000832367 -0.00131978 0
-0.000460036 -0.00120941 0
-4.54401e-05 -0.000346021 0
-0.000393677 0.00144663 0
-0.000953696 0.00283697 0
-0.000985335 0.00138746 0
-0.00080056 0.000138238 0
-0.000731146 0.000767907 0
-0.00109626 0.0016909 0
-0.00197149 0.00162845 0
-0.00310908 0.00116066 0
-0.00356297 0.000467261 0
-0.00314296 -0.000550268 0
-0.00254757 -0.000988109 0
-0.00234613 -0.00092625 0
-0.00213431 -0.000977057 0
-0.00172642 -0.000791201 0
-0.0012739 -0.000493905 0
-0.000918022 -0.000215863 0
-0.000683538 2.18387e-05 0
-0.000552982 6.42816e-05 0
-0.000519727 -5.60725e-05 0
-0.000835066 -0.000504431 0
-0.00109603 -0.000934473 0
-0.000798428 -0.00142328 0
-0.000480925 -0.00138189 0
-0.00055389 -0.00139973 0
-0.000257176 -0.000789744 0
-0.000106375 0.0021762 0
-0.000174184 0.00244693 0
-4.95718e-05 0.00144893 0
0 0 0
-0.000219945 0.00114632 0
-0.000895691 0.00221557 0
-0.00205571 0.00307235 0
-0.00297687 0.00195501 0
-0.00277145 0.000105198 0
-0.00259624 -0.00088795 0
-0.00264556 -0.00130398 0
-0.00218797 -0.00131256 0
-0.00166426 -0.00121932 0
-0.00159802 -0.00110057 0
-0.0013213 -0.000997124 0
-0.000721782 -0.000601015 0
-0.000184613 -0.000328908 0
0 0 0
0 0 0
0 0 0
-0.0004947 -0.000660893 0
-0.00082013 -0.00183282 0
-0.000326064 -0.00157882 0
-7.46019e-05 -0.00120124 0
-2.57777e-05 -0.00118115 0
0.000398795 0.00173441 0
0.000221774 0.00293676 0
-0.000142852 0.00136324 0
0 0 0
-0.00012024 0.00151815 0
-0.00105329 0.00344517 0
-0.00177726 0.0036149 0
-0.00167228 0.00217046 0
-0.00144547 -8.50054e-05 0
-0.00143176 -0.000995662 0
-0.0015999 -0.00130728 0
-0.00175672 -0.00148003 0
-0.00186478 -0.00133833 0
-0.00174433 -0.00146583 0
-0.00123682 -0.00136573 0
-0.000630424 -0.00112553 0
-0.000132998 -0.000775013 0
0 0 0
0 0 0
0 0 0
-3.8668e-05 -0.000384918 0
-0.000434504 -0.00130763 0
-0.000509406 -0.0022608 0
9.40468e-05 -0.00175786 0
0.000267017 -0.000851296 0
-0.000223417 0.00143474 0
-0.000342327 0.00355045 0
-7.50938e-05 0.00101898 0
0 0 0
-0.000104522 0.00185113 0
-0.000672218 0.00471637 0
-0.000793402 0.00321373 0
-0.000263595 0.00150299 0
0 0 0
-0.000474931 -0.000499555 0
-0.00126447 -0.00080468 0
-0.0019313 -0.00116119 0
-0.00206252 -0.00142785 0
-0.00147385 -0.00184824 0
-0.00115633 -0.00162934 0
-0.00130574 -0.00172089 0
-0.000637441 -0.00132131 0
0 0 0
0 0 0
0 0 0
7.17767e-05 -0.000269416 0
0.000151399 -0.000955052 0
-0.000112302 -0.00221402 0
-0.000464336 -0.00213851 0
-0.000213858 -0.000673684 0
-0.000282127 0.00218698 0
-7.91342e-05 0.0027247 0
0.000232686 0.00107273 0
0 0 0
-0.000810153 0.00267936 0
-0.00173801 0.00451308 0
-0.00154142 0.00333663 0
-0.00123925 0.00109069 0
-0.00120055 9.23495e-05 0
-0.00116065 -7.15795e-07 0
-0.00156795 0.000134778 0
-0.00211131 -0.000907697 0
-0.0020256 -0.00169634 0
-0.00209637 -0.00191879 0
-0.00213853 -0.00185191 0
-0.00182293 -0.00199325 0
-0.00190395 -0.00135216 0
-0.00181284 -0.000724564 0
-0.000991763 -0.000215521 0
-0.000782883 -3.39891e-05 0
-0.000610407 -0.000316943 0
7.07987e-05 -0.00186596 0
0.000331525 -0.00145693 0
-0.000356789 -0.00154679 0
-0.000346118 -0.00158989 0
0.000289408 0.00218392 0
0.000577397 0.00212217 0
0.000218284 0.00161677 0
-0.00135092 0.00123459 0
-0.00205602 0.0035696 0
-0.00209529 0.00452302 0
-0.00261367 0.00365223 0
-0.0022693 0.000591219 0
-0.00130117 -0.000390629 0
-0.00166471 0.00044838 0
-0.00231194 0.000373837 0
-0.00164064 -0.00111176 0
-0.0014318 -0.00153232 0
-0.00246918 -0.00143834 0
-0.00305121 -0.00184796 0
-0.00280999 -0.00195114 0
-0.00306786 -0.000976248 0
-0.00361323 -0.00128268 0
-0.00288261 -0.000837937 0
-0.00166822 -0.00066572 0
-0.00109021 -0.000530233 0
-0.00116385 -0.00219101 0
-0.000524809 -0.00166633 0
0.000331183 -0.00128587 0
0.000307742 -0.00152528 0
0.000428401 0.00111056 0
6.16523e-05 0.00340932 0
-0.000985405 0.00234224 0
-0.0014458 0.00202655 0
-0.00253692 0.00427551 0
-0.00363279 0.00528037 0
-0.00181341 0.0019199 0
0 0 0
-0.000972183 0.000151781 0
-0.000983374 0.000412039 0
0 0 0
-0.0010266 -0.000609527 0
-0.00249432 -0.000703862 0
-0.00261341 -0.00110749 0
-0.00267272 -0.00136991 0
-0.00378536 -0.00139492 0
-0.00406322 -0.00128616 0
-0.00346277 -0.000938596 0
-0.00378468 -0.00118154 0
-0.00360467 -0.00212688 0
-0.00193574 -0.00142282 0
-0.00144826 -0.00172272 0
-0.00138044 -0.00304023 0
-0.000331683 -0.00281111 0
0.000310804 -0.000754773 0
-0.000638654 0.00138394 0
-0.000821789 0.00377327 0
-0.000669009 0.00321262 0
-0.00249209 0.00325831 0
-0.00371817 0.00481627 0
-0.00210709 0.00411064 0
-0.000867668 0.000304811 0
-0.00202011 0.00037207 0
-0.0014021 -0.000165122 0
0 0 0
-0.000533886 0.00051265 0
-0.00169271 0.000676217 0
-0.00240795 -3.22354e-05 0
-0.00250021 -0.000973891 0
-0.00304784 -0.000655196 0
-0.00416513 -0.000639506 0
-0.00444805 -0.00147227 0
-0.0038926 -0.00104368 0
-0.00379077 -0.00129474 0
-0.00410822 -0.00237324 0
-0.00324855 -0.00265698 0
-0.0015516 -0.00251903 0
-0.00110332 -0.00251807 0
-0.0018949 -0.00306462 0
-0.000964441 -0.00143944 0
-0.000252679 0.00275539 0
-0.000348429 0.00242546 0
-0.000875301 0.00433095 0
-0.00284353 0.0059563 0
-0.00339701 0.00426363 0
-0.00323684 0.00263036 0
-0.00493618 0.00207732 0
-0.00504728 -4.70885e-05 0
-0.00340356 -0.00173411 0
-0.00317182 -0.000455664 0
-0.00330697 0.00138937 0
-0.00286369 0.00106402 0
-0.00213552 -7.79756e-05 0
-0.00288895 -0.000170604 0
-0.00373527 -9.12634e-05 0
-0.00314925 -0.000528254 0
-0.00374468 -0.000490886 0
-0.00521233 -0.00143766 0
-0.00429905 -0.002138 0
-0.00335782 -0.00177226 0
-0.00410522 -0.00343875 0
-0.00344346 -0.00515902 0
-0.00118463 -0.00263953 0
-0.000546156 -0.00261785 0
-0.00021801 -0.00353798 0
0.000511024 0.00237545 0
-0.000557206 0.00391874 0
-0.00247433 0.00578375 0
-0.00243426 0.0060601 0
-0.00225728 0.004739 0
-0.00374061 0.00412462 0
-0.00439435 0.00292932 0
-0.00485726 -0.000408001 0
-0.00498645 -0.00228832 0
-0.00436539 -0.000972397 0
-0.00388285 0.00102819 0
-0.00307106 7.29402e-05 0
-0.00251092 -0.000437725 0
-0.00254785 0.000365782 0
-0.00272291 0.000116431 0
-0.00288637 -0.000379741 0
-0.00376877 0.000610524 0
-0.00472604 -0.00120915 0
-0.00478807 -0.00224864 0
-0.00369046 -0.00298455 0
-0.00290836 -0.00295447 0
-0.00387651 -0.00489139 0
-0.00295442 -0.00507645 0
-0.000210417 -0.00399508 0
0.000785023 -0.00238518 0
-3.7208e-05 0.00164094 0
-0.00137645 0.00699425 0
-0.00217543 0.00616323 0
-0.00161395 0.00451643 0
-0.00219303 0.00622102 0
-0.00338552 0.00583469 0
-0.00179929 0.000911356 0
0 0 0
-0.00180285 -0.00125614 0
-0.00296836 -0.00110681 0
-0.00144426 -0.000286719 0
-0.00100457 -0.000333792 0
-0.00170869 0.000125318 0
-0.0013664 -1.397e-05 0
-0.0013414 0.000372464 0
-0.00308124 0.00101197 0
-0.00316644 0.000419851 0
-0.00174664 -0.000791746 0
-0.00400113 -0.000666048 0
-0.00604453 -0.00504301 0
-0.00387468 -0.00361377 0
-0.0027947 -0.00380168 0
-0.00347696 -0.00688882 0
-0.00291515 -0.00731217 0
-0.00051452 -0.002338 0
-0.00158067 0.00400506 0
-0.00172461 0.00573582 0
-0.000104316 0.00589196 0
-0.00191562 0.00663202 0
-0.00263144 0.00573256 0
-0.000217555 0.00363639 0
0.000645931 0.000517492 0
0 0 0
0.000275607 -0.000303417 0
5.29977e-05 -0.000971173 0
-0.000206028 -0.00119416 0
0 0 0
-0.000298496 0.000429832 0
-0.00105176 0.000297869 0
-0.00163849 0.000933245 0
-0.00152566 0.0014714 0
-0.00118574 -0.000362376 0
-0.00133889 0.00016001 0
-0.00184567 0.000326916 0
-0.00333944 -0.00284912 0
-0.00502982 -0.00455209 0
-0.00362664 -0.00645904 0
-0.00195102 -0.00470881 0
-0.00388069 -0.00653661 0
-0.00212183 -0.0059594 0
0.000724349 0.00536509 0
0.000552569 0.00421232 0
-0.00187891 0.0073096 0
-0.00412021 0.00884408 0
-0.00302466 0.00403955 0
-0.00106749 0.00123305 0
-0.000235898 0.00125835 0
0 0 0
-0.00022121 -0.000381945 0
-0.000494194 -0.000823422 0
-0.00114243 -0.000507413 0
-0.00100237 -0.000160779 0
-0.000122312 0.000110971 0
-0.000638949 0.00149022 0
-0.000977373 0.00134388 0
0.000104105 0.00024396 0
-0.000163654 -0.000113139 0
-0.000734511 0.000436131 0
0 0 0
-0.000187993 0.000205964 0
-0.00365835 -0.00298862 0
-0.0065808 -0.00884231 0
-0.00355891 -0.00581999 0
-0.000264294 -0.00716393 0
0.00115082 -0.00815119 0
0.000866571 0.00290608 0
-0.00231825 0.0098832 0
-0.00608646 0.00965787 0
-0.00401441 0.00577379 0
-0.00228933 0.00362938 0
-0.0027123 0.00118226 0
-0.00129332 -0.0011157 0
0 0 0
-0.000551109 0.00061724 0
-0.00108422 -0.00081647 0
-0.00140461 -0.000264779 0
-0.00210252 -0.000472475 0
-0.00236279 -4.10412e-05 0
-0.000828027 0.000480186 0
0.000471929 0.000806777 0
8.40663e-05 0.000621705 0
-7.32564e-05 0.000187357 0
1.45264e-05 -3.54901e-05 0
0 0 0
7.70799e-05 0.000611738 0
-0.000153311 -0.00017023 0
-0.00330105 -0.00413778 0
-0.00613801 -0.00960301 0
-0.00355143 -0.0130753 0
0.000934338 -0.00520437 0
-0.00198832 0.00447539 0
-0.00477524 0.0137824 0
-0.00402166 0.00909117 0
-0.00528086 0.00557013 0
-0.00958442 0.0044553 0
-0.00936657 -4.99537e-05 0
-0.00374228 -0.00509619 0
0 0 0
-0.00175742 0.00212731 0
-0.00350307 0.000338955 0
-0.00239311 -0.0010981 0
-0.00126245 0.000144553 0
-0.00172612 0.000116773 0
-0.00147602 -0.00106865 0
-0.000683132 -0.000666293 0
-5.47085e-05 0.0016862 0
0 0 0
0 0 0
0 0 0
-3.52486e-05 4.85114e-05 0
0.00068647 0.000132403 0
0.000273329 -0.000249764 0
-0.00585311 -0.00604358 0
-0.0105199 -0.0167328 0
-0.00320321 -0.00964816 0
-0.0025604 0.0111599 0
-0.00237583 0.00893232 0
-0.00161989 0.010262 0
-0.00820102 0.0136336 0
-0.0088501 0.00287833 0
-0.0056334 -0.0027546 0
-0.00877956 -0.00652642 0
-0.00902969 -0.00245029 0
-0.00308237 -0.000170861 0
-0.00159449 0.00223385 0
-0.00438328 -0.00203701 0
-0.00358548 -0.000717881 0
-0.00120108 -0.00161935 0
-0.000344263 0.000367952 0
-0.00195401 -0.000896329 0
-0.000892447 5.41214e-05 0
0 0 0
0 0 0
0 0 0
0 0 0
0 0 0
0 0 0
0 0 0
-0.00489744 -0.0108613 0
-0.00372757 -0.0208195 0
0.00359643 0.00959739 0
-0.00104952 0.0133372 0
-0.010868 0.0150577 0
-0.0104825 0.0138482 0
-0.00538152 0.000785846 0
-0.00402453 -0.00190052 0
-0.0084605 -0.0022772 0
-0.0107373 -0.00501441 0
-0.00770815 -0.00366003 0
-0.00430648 0.00168983 0
-0.00304273 -0.00115827 0
-0.00191237 -0.00216399 0
-0.000726546 -0.00434703 0
0.00205674 0.000155784 0
0.000844085 0.000977828 0
0.000295295 -0.0012753 0
0 0 0
0 0 0
0 0 0
0 0 0
-0.00386709 0.00340652 0
-0.0112852 8.5684e-05 0
-0.00788649 -0.00170003 0
0.0028201 -0.0166291 0
0.00815717 -0.0175768 0
-0.00270221 0.00772007 0
-0.0133427 0.0294385 0
-0.0103251 0.0120549 0
0.000139824 0.00531811 0
0 0 0
-0.00184487 0.000228306 0
-0.00162214 0.000136774 0
-0.00311775 -0.00407941 0
-0.00593855 -0.00530177 0
-0.00282736 -0.00488165 0
0 0 0
0.000522772 -0.00445091 0
-0.00212961 -0.00254588 0
-0.00170935 -0.00390099 0
0.00137873 0.00093194 0
0.000189906 0.00271319 0
-0.00498414 -0.000130971 0
-0.00143409 -0.00174004 0
-0.000472316 0.00183203 0
-0.00715067 0.0058162 0
-0.00781667 0.00628818 0
-0.00462917 0.00155382 0
-0.00510824 -0.00459211 0
-0.00819562 -0.0310395 0
-0.000969587 -0.00984518 0
-0.00640229 0.0211606 0
-0.00707707 0.0231666 0
0.00591003 0.00244662 0
0.0161418 3.39897e-05 0
0.0155572 0.00404272 0
0.0119886 -0.000441361 0
0.0155575 -0.000925635 0
0.0164873 -0.000918284 0
0.0101444 -0.00143259 0
0.0056541 -0.00649714 0
0.0107317 -0.00367781 0
0.00783493 0.000733714 0
0 0 0
0.00237756 -0.00672918 0
0.00428784 8.48651e-05 0
0.00258736 0.00693295 0
0 0 0
0.00391703 -0.00585655 0
0.0045537 0.00238696 0
0.0041043 0.008922 0
0.00568617 -0.000164257 0
0.0123673 0.00166054 0
0.00753877 -0.000151739 0
-0.00765243 -0.0224221 0
-0.00461454 -0.0222404 0
0.0234915 0.0152343 0
0.051503 0.00351121 0
0.0541556 -0.00199212 0
0.0488445 -0.00177692 0
0.0523156 0.00378151 0
0.0558961 -0.00146127 0
0.0525282 -0.0011513 0
0.0510494 -5.33415e-05 0
0.0531722 0.00108936 0
0.0519535 -0.00199854 0
0.0435025 -0.00382138 0
0.0438864 0.0036897 0
0.0492038 -0.000761895 0
0.0444306 -0.00343625 0
0.038042 -0.000397683 0
0.0445365 0.00380462 0
0.0489534 -0.000802145 0
0.0444325 -0.00372369 0
0.039875 0.00203606 0
0.0488886 0.00443287 0
0.0520334 -0.00151762 0
0.0475325 -0.000834584 0
0.0530159 0.00432807 0
0.0508186 -0.00382447 0
0.0330247 -0.0191154 0


